+ 1 /NodeList/0/DeviceList/0/$ns3::PointToPointNetDevice/TxQueue/Enqueue ns3::PppHeader (Point-to-Point Protocol: IP (0x0021)) ns3::Ipv4Header (tos 0x0 DSCP Default ECN Not-ECT ttl 64 id 0 protocol 6 offset (bytes) 0 flags [none] length: 40 10.1.1.1 > 10.1.1.2) ns3::TcpHeader (49153 > 8080 [ SYN ] Seq=0 Ack=0 Win=65535)
- 1 /NodeList/0/DeviceList/0/$ns3::PointToPointNetDevice/TxQueue/Dequeue ns3::PppHeader (Point-to-Point Protocol: IP (0x0021)) ns3::Ipv4Header (tos 0x0 DSCP Default ECN Not-ECT ttl 64 id 0 protocol 6 offset (bytes) 0 flags [none] length: 40 10.1.1.1 > 10.1.1.2) ns3::TcpHeader (49153 > 8080 [ SYN ] Seq=0 Ack=0 Win=65535)
r 1.00507 /NodeList/1/DeviceList/0/$ns3::PointToPointNetDevice/MacRx ns3::PppHeader (Point-to-Point Protocol: IP (0x0021)) ns3::Ipv4Header (tos 0x0 DSCP Default ECN Not-ECT ttl 64 id 0 protocol 6 offset (bytes) 0 flags [none] length: 40 10.1.1.1 > 10.1.1.2) ns3::TcpHeader (49153 > 8080 [ SYN ] Seq=0 Ack=0 Win=65535)
+ 1.00507 /NodeList/1/DeviceList/0/$ns3::PointToPointNetDevice/TxQueue/Enqueue ns3::PppHeader (Point-to-Point Protocol: IP (0x0021)) ns3::Ipv4Header (tos 0x0 DSCP Default ECN Not-ECT ttl 64 id 0 protocol 6 offset (bytes) 0 flags [none] length: 40 10.1.1.2 > 10.1.1.1) ns3::TcpHeader (8080 > 49153 [ SYN  ACK ] Seq=0 Ack=1 Win=65535)
- 1.00507 /NodeList/1/DeviceList/0/$ns3::PointToPointNetDevice/TxQueue/Dequeue ns3::PppHeader (Point-to-Point Protocol: IP (0x0021)) ns3::Ipv4Header (tos 0x0 DSCP Default ECN Not-ECT ttl 64 id 0 protocol 6 offset (bytes) 0 flags [none] length: 40 10.1.1.2 > 10.1.1.1) ns3::TcpHeader (8080 > 49153 [ SYN  ACK ] Seq=0 Ack=1 Win=65535)
r 1.01013 /NodeList/0/DeviceList/0/$ns3::PointToPointNetDevice/MacRx ns3::PppHeader (Point-to-Point Protocol: IP (0x0021)) ns3::Ipv4Header (tos 0x0 DSCP Default ECN Not-ECT ttl 64 id 0 protocol 6 offset (bytes) 0 flags [none] length: 40 10.1.1.2 > 10.1.1.1) ns3::TcpHeader (8080 > 49153 [ SYN  ACK ] Seq=0 Ack=1 Win=65535)
+ 1.01013 /NodeList/0/DeviceList/0/$ns3::PointToPointNetDevice/TxQueue/Enqueue ns3::PppHeader (Point-to-Point Protocol: IP (0x0021)) ns3::Ipv4Header (tos 0x0 DSCP Default ECN Not-ECT ttl 64 id 1 protocol 6 offset (bytes) 0 flags [none] length: 40 10.1.1.1 > 10.1.1.2) ns3::TcpHeader (49153 > 8080 [ ACK ] Seq=1 Ack=1 Win=65535)
- 1.01013 /NodeList/0/DeviceList/0/$ns3::PointToPointNetDevice/TxQueue/Dequeue ns3::PppHeader (Point-to-Point Protocol: IP (0x0021)) ns3::Ipv4Header (tos 0x0 DSCP Default ECN Not-ECT ttl 64 id 1 protocol 6 offset (bytes) 0 flags [none] length: 40 10.1.1.1 > 10.1.1.2) ns3::TcpHeader (49153 > 8080 [ ACK ] Seq=1 Ack=1 Win=65535)
+ 1.01013 /NodeList/0/DeviceList/0/$ns3::PointToPointNetDevice/TxQueue/Enqueue ns3::PppHeader (Point-to-Point Protocol: IP (0x0021)) ns3::Ipv4Header (tos 0x0 DSCP Default ECN Not-ECT ttl 64 id 2 protocol 6 offset (bytes) 0 flags [none] length: 576 10.1.1.1 > 10.1.1.2) ns3::TcpHeader (49153 > 8080 [ ACK ] Seq=1 Ack=1 Win=65535) Payload Fragment [0:536]
- 1.0102 /NodeList/0/DeviceList/0/$ns3::PointToPointNetDevice/TxQueue/Dequeue ns3::PppHeader (Point-to-Point Protocol: IP (0x0021)) ns3::Ipv4Header (tos 0x0 DSCP Default ECN Not-ECT ttl 64 id 2 protocol 6 offset (bytes) 0 flags [none] length: 576 10.1.1.1 > 10.1.1.2) ns3::TcpHeader (49153 > 8080 [ ACK ] Seq=1 Ack=1 Win=65535) Payload Fragment [0:536]
r 1.0152 /NodeList/1/DeviceList/0/$ns3::PointToPointNetDevice/MacRx ns3::PppHeader (Point-to-Point Protocol: IP (0x0021)) ns3::Ipv4Header (tos 0x0 DSCP Default ECN Not-ECT ttl 64 id 1 protocol 6 offset (bytes) 0 flags [none] length: 40 10.1.1.1 > 10.1.1.2) ns3::TcpHeader (49153 > 8080 [ ACK ] Seq=1 Ack=1 Win=65535)
r 1.01613 /NodeList/1/DeviceList/0/$ns3::PointToPointNetDevice/MacRx ns3::PppHeader (Point-to-Point Protocol: IP (0x0021)) ns3::Ipv4Header (tos 0x0 DSCP Default ECN Not-ECT ttl 64 id 2 protocol 6 offset (bytes) 0 flags [none] length: 576 10.1.1.1 > 10.1.1.2) ns3::TcpHeader (49153 > 8080 [ ACK ] Seq=1 Ack=1 Win=65535) Payload Fragment [0:536]
+ 1.01613 /NodeList/1/DeviceList/0/$ns3::PointToPointNetDevice/TxQueue/Enqueue ns3::PppHeader (Point-to-Point Protocol: IP (0x0021)) ns3::Ipv4Header (tos 0x0 DSCP Default ECN Not-ECT ttl 64 id 1 protocol 6 offset (bytes) 0 flags [none] length: 40 10.1.1.2 > 10.1.1.1) ns3::TcpHeader (8080 > 49153 [ ACK ] Seq=1 Ack=537 Win=65535)
- 1.01613 /NodeList/1/DeviceList/0/$ns3::PointToPointNetDevice/TxQueue/Dequeue ns3::PppHeader (Point-to-Point Protocol: IP (0x0021)) ns3::Ipv4Header (tos 0x0 DSCP Default ECN Not-ECT ttl 64 id 1 protocol 6 offset (bytes) 0 flags [none] length: 40 10.1.1.2 > 10.1.1.1) ns3::TcpHeader (8080 > 49153 [ ACK ] Seq=1 Ack=537 Win=65535)
r 1.02119 /NodeList/0/DeviceList/0/$ns3::PointToPointNetDevice/MacRx ns3::PppHeader (Point-to-Point Protocol: IP (0x0021)) ns3::Ipv4Header (tos 0x0 DSCP Default ECN Not-ECT ttl 64 id 1 protocol 6 offset (bytes) 0 flags [none] length: 40 10.1.1.2 > 10.1.1.1) ns3::TcpHeader (8080 > 49153 [ ACK ] Seq=1 Ack=537 Win=65535)
+ 1.02119 /NodeList/0/DeviceList/0/$ns3::PointToPointNetDevice/TxQueue/Enqueue ns3::PppHeader (Point-to-Point Protocol: IP (0x0021)) ns3::Ipv4Header (tos 0x0 DSCP Default ECN Not-ECT ttl 64 id 3 protocol 6 offset (bytes) 0 flags [none] length: 576 10.1.1.1 > 10.1.1.2) ns3::TcpHeader (49153 > 8080 [ ACK ] Seq=537 Ack=1 Win=65535) Payload Fragment [536:1072]
- 1.02119 /NodeList/0/DeviceList/0/$ns3::PointToPointNetDevice/TxQueue/Dequeue ns3::PppHeader (Point-to-Point Protocol: IP (0x0021)) ns3::Ipv4Header (tos 0x0 DSCP Default ECN Not-ECT ttl 64 id 3 protocol 6 offset (bytes) 0 flags [none] length: 576 10.1.1.1 > 10.1.1.2) ns3::TcpHeader (49153 > 8080 [ ACK ] Seq=537 Ack=1 Win=65535) Payload Fragment [536:1072]
+ 1.02119 /NodeList/0/DeviceList/0/$ns3::PointToPointNetDevice/TxQueue/Enqueue ns3::PppHeader (Point-to-Point Protocol: IP (0x0021)) ns3::Ipv4Header (tos 0x0 DSCP Default ECN Not-ECT ttl 64 id 4 protocol 6 offset (bytes) 0 flags [none] length: 576 10.1.1.1 > 10.1.1.2) ns3::TcpHeader (49153 > 8080 [ ACK ] Seq=1073 Ack=1 Win=65535) Payload Fragment [1072:1460] Payload Fragment [0:148]
- 1.02212 /NodeList/0/DeviceList/0/$ns3::PointToPointNetDevice/TxQueue/Dequeue ns3::PppHeader (Point-to-Point Protocol: IP (0x0021)) ns3::Ipv4Header (tos 0x0 DSCP Default ECN Not-ECT ttl 64 id 4 protocol 6 offset (bytes) 0 flags [none] length: 576 10.1.1.1 > 10.1.1.2) ns3::TcpHeader (49153 > 8080 [ ACK ] Seq=1073 Ack=1 Win=65535) Payload Fragment [1072:1460] Payload Fragment [0:148]
r 1.02712 /NodeList/1/DeviceList/0/$ns3::PointToPointNetDevice/MacRx ns3::PppHeader (Point-to-Point Protocol: IP (0x0021)) ns3::Ipv4Header (tos 0x0 DSCP Default ECN Not-ECT ttl 64 id 3 protocol 6 offset (bytes) 0 flags [none] length: 576 10.1.1.1 > 10.1.1.2) ns3::TcpHeader (49153 > 8080 [ ACK ] Seq=537 Ack=1 Win=65535) Payload Fragment [536:1072]
r 1.02804 /NodeList/1/DeviceList/0/$ns3::PointToPointNetDevice/MacRx ns3::PppHeader (Point-to-Point Protocol: IP (0x0021)) ns3::Ipv4Header (tos 0x0 DSCP Default ECN Not-ECT ttl 64 id 4 protocol 6 offset (bytes) 0 flags [none] length: 576 10.1.1.1 > 10.1.1.2) ns3::TcpHeader (49153 > 8080 [ ACK ] Seq=1073 Ack=1 Win=65535) Payload Fragment [1072:1460] Payload Fragment [0:148]
+ 1.02804 /NodeList/1/DeviceList/0/$ns3::PointToPointNetDevice/TxQueue/Enqueue ns3::PppHeader (Point-to-Point Protocol: IP (0x0021)) ns3::Ipv4Header (tos 0x0 DSCP Default ECN Not-ECT ttl 64 id 2 protocol 6 offset (bytes) 0 flags [none] length: 40 10.1.1.2 > 10.1.1.1) ns3::TcpHeader (8080 > 49153 [ ACK ] Seq=1 Ack=1609 Win=65535)
- 1.02804 /NodeList/1/DeviceList/0/$ns3::PointToPointNetDevice/TxQueue/Dequeue ns3::PppHeader (Point-to-Point Protocol: IP (0x0021)) ns3::Ipv4Header (tos 0x0 DSCP Default ECN Not-ECT ttl 64 id 2 protocol 6 offset (bytes) 0 flags [none] length: 40 10.1.1.2 > 10.1.1.1) ns3::TcpHeader (8080 > 49153 [ ACK ] Seq=1 Ack=1609 Win=65535)
r 1.03311 /NodeList/0/DeviceList/0/$ns3::PointToPointNetDevice/MacRx ns3::PppHeader (Point-to-Point Protocol: IP (0x0021)) ns3::Ipv4Header (tos 0x0 DSCP Default ECN Not-ECT ttl 64 id 2 protocol 6 offset (bytes) 0 flags [none] length: 40 10.1.1.2 > 10.1.1.1) ns3::TcpHeader (8080 > 49153 [ ACK ] Seq=1 Ack=1609 Win=65535)
+ 1.03311 /NodeList/0/DeviceList/0/$ns3::PointToPointNetDevice/TxQueue/Enqueue ns3::PppHeader (Point-to-Point Protocol: IP (0x0021)) ns3::Ipv4Header (tos 0x0 DSCP Default ECN Not-ECT ttl 64 id 5 protocol 6 offset (bytes) 0 flags [none] length: 576 10.1.1.1 > 10.1.1.2) ns3::TcpHeader (49153 > 8080 [ ACK ] Seq=1609 Ack=1 Win=65535) Payload Fragment [148:684]
- 1.03311 /NodeList/0/DeviceList/0/$ns3::PointToPointNetDevice/TxQueue/Dequeue ns3::PppHeader (Point-to-Point Protocol: IP (0x0021)) ns3::Ipv4Header (tos 0x0 DSCP Default ECN Not-ECT ttl 64 id 5 protocol 6 offset (bytes) 0 flags [none] length: 576 10.1.1.1 > 10.1.1.2) ns3::TcpHeader (49153 > 8080 [ ACK ] Seq=1609 Ack=1 Win=65535) Payload Fragment [148:684]
+ 1.03311 /NodeList/0/DeviceList/0/$ns3::PointToPointNetDevice/TxQueue/Enqueue ns3::PppHeader (Point-to-Point Protocol: IP (0x0021)) ns3::Ipv4Header (tos 0x0 DSCP Default ECN Not-ECT ttl 64 id 6 protocol 6 offset (bytes) 0 flags [none] length: 576 10.1.1.1 > 10.1.1.2) ns3::TcpHeader (49153 > 8080 [ ACK ] Seq=2145 Ack=1 Win=65535) Payload Fragment [684:1220]
d 1.03311 /NodeList/0/DeviceList/0/$ns3::PointToPointNetDevice/TxQueue/Drop ns3::PppHeader (Point-to-Point Protocol: IP (0x0021)) ns3::Ipv4Header (tos 0x0 DSCP Default ECN Not-ECT ttl 64 id 7 protocol 6 offset (bytes) 0 flags [none] length: 576 10.1.1.1 > 10.1.1.2) ns3::TcpHeader (49153 > 8080 [ ACK ] Seq=2681 Ack=1 Win=65535) Payload Fragment [1220:1460] Payload Fragment [0:296]
- 1.03404 /NodeList/0/DeviceList/0/$ns3::PointToPointNetDevice/TxQueue/Dequeue ns3::PppHeader (Point-to-Point Protocol: IP (0x0021)) ns3::Ipv4Header (tos 0x0 DSCP Default ECN Not-ECT ttl 64 id 6 protocol 6 offset (bytes) 0 flags [none] length: 576 10.1.1.1 > 10.1.1.2) ns3::TcpHeader (49153 > 8080 [ ACK ] Seq=2145 Ack=1 Win=65535) Payload Fragment [684:1220]
r 1.03904 /NodeList/1/DeviceList/0/$ns3::PointToPointNetDevice/MacRx ns3::PppHeader (Point-to-Point Protocol: IP (0x0021)) ns3::Ipv4Header (tos 0x0 DSCP Default ECN Not-ECT ttl 64 id 5 protocol 6 offset (bytes) 0 flags [none] length: 576 10.1.1.1 > 10.1.1.2) ns3::TcpHeader (49153 > 8080 [ ACK ] Seq=1609 Ack=1 Win=65535) Payload Fragment [148:684]
r 1.03996 /NodeList/1/DeviceList/0/$ns3::PointToPointNetDevice/MacRx ns3::PppHeader (Point-to-Point Protocol: IP (0x0021)) ns3::Ipv4Header (tos 0x0 DSCP Default ECN Not-ECT ttl 64 id 6 protocol 6 offset (bytes) 0 flags [none] length: 576 10.1.1.1 > 10.1.1.2) ns3::TcpHeader (49153 > 8080 [ ACK ] Seq=2145 Ack=1 Win=65535) Payload Fragment [684:1220]
+ 1.03996 /NodeList/1/DeviceList/0/$ns3::PointToPointNetDevice/TxQueue/Enqueue ns3::PppHeader (Point-to-Point Protocol: IP (0x0021)) ns3::Ipv4Header (tos 0x0 DSCP Default ECN Not-ECT ttl 64 id 3 protocol 6 offset (bytes) 0 flags [none] length: 40 10.1.1.2 > 10.1.1.1) ns3::TcpHeader (8080 > 49153 [ ACK ] Seq=1 Ack=2681 Win=65535)
- 1.03996 /NodeList/1/DeviceList/0/$ns3::PointToPointNetDevice/TxQueue/Dequeue ns3::PppHeader (Point-to-Point Protocol: IP (0x0021)) ns3::Ipv4Header (tos 0x0 DSCP Default ECN Not-ECT ttl 64 id 3 protocol 6 offset (bytes) 0 flags [none] length: 40 10.1.1.2 > 10.1.1.1) ns3::TcpHeader (8080 > 49153 [ ACK ] Seq=1 Ack=2681 Win=65535)
r 1.04503 /NodeList/0/DeviceList/0/$ns3::PointToPointNetDevice/MacRx ns3::PppHeader (Point-to-Point Protocol: IP (0x0021)) ns3::Ipv4Header (tos 0x0 DSCP Default ECN Not-ECT ttl 64 id 3 protocol 6 offset (bytes) 0 flags [none] length: 40 10.1.1.2 > 10.1.1.1) ns3::TcpHeader (8080 > 49153 [ ACK ] Seq=1 Ack=2681 Win=65535)
+ 1.04503 /NodeList/0/DeviceList/0/$ns3::PointToPointNetDevice/TxQueue/Enqueue ns3::PppHeader (Point-to-Point Protocol: IP (0x0021)) ns3::Ipv4Header (tos 0x0 DSCP Default ECN Not-ECT ttl 64 id 8 protocol 6 offset (bytes) 0 flags [none] length: 576 10.1.1.1 > 10.1.1.2) ns3::TcpHeader (49153 > 8080 [ ACK ] Seq=3217 Ack=1 Win=65535) Payload Fragment [296:832]
- 1.04503 /NodeList/0/DeviceList/0/$ns3::PointToPointNetDevice/TxQueue/Dequeue ns3::PppHeader (Point-to-Point Protocol: IP (0x0021)) ns3::Ipv4Header (tos 0x0 DSCP Default ECN Not-ECT ttl 64 id 8 protocol 6 offset (bytes) 0 flags [none] length: 576 10.1.1.1 > 10.1.1.2) ns3::TcpHeader (49153 > 8080 [ ACK ] Seq=3217 Ack=1 Win=65535) Payload Fragment [296:832]
+ 1.04503 /NodeList/0/DeviceList/0/$ns3::PointToPointNetDevice/TxQueue/Enqueue ns3::PppHeader (Point-to-Point Protocol: IP (0x0021)) ns3::Ipv4Header (tos 0x0 DSCP Default ECN Not-ECT ttl 64 id 9 protocol 6 offset (bytes) 0 flags [none] length: 576 10.1.1.1 > 10.1.1.2) ns3::TcpHeader (49153 > 8080 [ ACK ] Seq=3753 Ack=1 Win=65535) Payload Fragment [832:1368]
d 1.04503 /NodeList/0/DeviceList/0/$ns3::PointToPointNetDevice/TxQueue/Drop ns3::PppHeader (Point-to-Point Protocol: IP (0x0021)) ns3::Ipv4Header (tos 0x0 DSCP Default ECN Not-ECT ttl 64 id 10 protocol 6 offset (bytes) 0 flags [none] length: 576 10.1.1.1 > 10.1.1.2) ns3::TcpHeader (49153 > 8080 [ ACK ] Seq=4289 Ack=1 Win=65535) Payload Fragment [1368:1460] Payload Fragment [0:444]
- 1.04595 /NodeList/0/DeviceList/0/$ns3::PointToPointNetDevice/TxQueue/Dequeue ns3::PppHeader (Point-to-Point Protocol: IP (0x0021)) ns3::Ipv4Header (tos 0x0 DSCP Default ECN Not-ECT ttl 64 id 9 protocol 6 offset (bytes) 0 flags [none] length: 576 10.1.1.1 > 10.1.1.2) ns3::TcpHeader (49153 > 8080 [ ACK ] Seq=3753 Ack=1 Win=65535) Payload Fragment [832:1368]
r 1.05095 /NodeList/1/DeviceList/0/$ns3::PointToPointNetDevice/MacRx ns3::PppHeader (Point-to-Point Protocol: IP (0x0021)) ns3::Ipv4Header (tos 0x0 DSCP Default ECN Not-ECT ttl 64 id 8 protocol 6 offset (bytes) 0 flags [none] length: 576 10.1.1.1 > 10.1.1.2) ns3::TcpHeader (49153 > 8080 [ ACK ] Seq=3217 Ack=1 Win=65535) Payload Fragment [296:832]
+ 1.05095 /NodeList/1/DeviceList/0/$ns3::PointToPointNetDevice/TxQueue/Enqueue ns3::PppHeader (Point-to-Point Protocol: IP (0x0021)) ns3::Ipv4Header (tos 0x0 DSCP Default ECN Not-ECT ttl 64 id 4 protocol 6 offset (bytes) 0 flags [none] length: 40 10.1.1.2 > 10.1.1.1) ns3::TcpHeader (8080 > 49153 [ ACK ] Seq=1 Ack=2681 Win=65535)
- 1.05095 /NodeList/1/DeviceList/0/$ns3::PointToPointNetDevice/TxQueue/Dequeue ns3::PppHeader (Point-to-Point Protocol: IP (0x0021)) ns3::Ipv4Header (tos 0x0 DSCP Default ECN Not-ECT ttl 64 id 4 protocol 6 offset (bytes) 0 flags [none] length: 40 10.1.1.2 > 10.1.1.1) ns3::TcpHeader (8080 > 49153 [ ACK ] Seq=1 Ack=2681 Win=65535)
r 1.05188 /NodeList/1/DeviceList/0/$ns3::PointToPointNetDevice/MacRx ns3::PppHeader (Point-to-Point Protocol: IP (0x0021)) ns3::Ipv4Header (tos 0x0 DSCP Default ECN Not-ECT ttl 64 id 9 protocol 6 offset (bytes) 0 flags [none] length: 576 10.1.1.1 > 10.1.1.2) ns3::TcpHeader (49153 > 8080 [ ACK ] Seq=3753 Ack=1 Win=65535) Payload Fragment [832:1368]
+ 1.05188 /NodeList/1/DeviceList/0/$ns3::PointToPointNetDevice/TxQueue/Enqueue ns3::PppHeader (Point-to-Point Protocol: IP (0x0021)) ns3::Ipv4Header (tos 0x0 DSCP Default ECN Not-ECT ttl 64 id 5 protocol 6 offset (bytes) 0 flags [none] length: 40 10.1.1.2 > 10.1.1.1) ns3::TcpHeader (8080 > 49153 [ ACK ] Seq=1 Ack=2681 Win=65535)
- 1.05188 /NodeList/1/DeviceList/0/$ns3::PointToPointNetDevice/TxQueue/Dequeue ns3::PppHeader (Point-to-Point Protocol: IP (0x0021)) ns3::Ipv4Header (tos 0x0 DSCP Default ECN Not-ECT ttl 64 id 5 protocol 6 offset (bytes) 0 flags [none] length: 40 10.1.1.2 > 10.1.1.1) ns3::TcpHeader (8080 > 49153 [ ACK ] Seq=1 Ack=2681 Win=65535)
r 1.05602 /NodeList/0/DeviceList/0/$ns3::PointToPointNetDevice/MacRx ns3::PppHeader (Point-to-Point Protocol: IP (0x0021)) ns3::Ipv4Header (tos 0x0 DSCP Default ECN Not-ECT ttl 64 id 4 protocol 6 offset (bytes) 0 flags [none] length: 40 10.1.1.2 > 10.1.1.1) ns3::TcpHeader (8080 > 49153 [ ACK ] Seq=1 Ack=2681 Win=65535)
r 1.05694 /NodeList/0/DeviceList/0/$ns3::PointToPointNetDevice/MacRx ns3::PppHeader (Point-to-Point Protocol: IP (0x0021)) ns3::Ipv4Header (tos 0x0 DSCP Default ECN Not-ECT ttl 64 id 5 protocol 6 offset (bytes) 0 flags [none] length: 40 10.1.1.2 > 10.1.1.1) ns3::TcpHeader (8080 > 49153 [ ACK ] Seq=1 Ack=2681 Win=65535)
+ 1.24503 /NodeList/0/DeviceList/0/$ns3::PointToPointNetDevice/TxQueue/Enqueue ns3::PppHeader (Point-to-Point Protocol: IP (0x0021)) ns3::Ipv4Header (tos 0x0 DSCP Default ECN Not-ECT ttl 64 id 11 protocol 6 offset (bytes) 0 flags [none] length: 576 10.1.1.1 > 10.1.1.2) ns3::TcpHeader (49153 > 8080 [ ACK ] Seq=2681 Ack=1 Win=65535) Payload Fragment [1220:1460] Payload Fragment [0:296]
- 1.24503 /NodeList/0/DeviceList/0/$ns3::PointToPointNetDevice/TxQueue/Dequeue ns3::PppHeader (Point-to-Point Protocol: IP (0x0021)) ns3::Ipv4Header (tos 0x0 DSCP Default ECN Not-ECT ttl 64 id 11 protocol 6 offset (bytes) 0 flags [none] length: 576 10.1.1.1 > 10.1.1.2) ns3::TcpHeader (49153 > 8080 [ ACK ] Seq=2681 Ack=1 Win=65535) Payload Fragment [1220:1460] Payload Fragment [0:296]
r 1.25095 /NodeList/1/DeviceList/0/$ns3::PointToPointNetDevice/MacRx ns3::PppHeader (Point-to-Point Protocol: IP (0x0021)) ns3::Ipv4Header (tos 0x0 DSCP Default ECN Not-ECT ttl 64 id 11 protocol 6 offset (bytes) 0 flags [none] length: 576 10.1.1.1 > 10.1.1.2) ns3::TcpHeader (49153 > 8080 [ ACK ] Seq=2681 Ack=1 Win=65535) Payload Fragment [1220:1460] Payload Fragment [0:296]
+ 1.25095 /NodeList/1/DeviceList/0/$ns3::PointToPointNetDevice/TxQueue/Enqueue ns3::PppHeader (Point-to-Point Protocol: IP (0x0021)) ns3::Ipv4Header (tos 0x0 DSCP Default ECN Not-ECT ttl 64 id 6 protocol 6 offset (bytes) 0 flags [none] length: 40 10.1.1.2 > 10.1.1.1) ns3::TcpHeader (8080 > 49153 [ ACK ] Seq=1 Ack=4289 Win=65535)
- 1.25095 /NodeList/1/DeviceList/0/$ns3::PointToPointNetDevice/TxQueue/Dequeue ns3::PppHeader (Point-to-Point Protocol: IP (0x0021)) ns3::Ipv4Header (tos 0x0 DSCP Default ECN Not-ECT ttl 64 id 6 protocol 6 offset (bytes) 0 flags [none] length: 40 10.1.1.2 > 10.1.1.1) ns3::TcpHeader (8080 > 49153 [ ACK ] Seq=1 Ack=4289 Win=65535)
r 1.25602 /NodeList/0/DeviceList/0/$ns3::PointToPointNetDevice/MacRx ns3::PppHeader (Point-to-Point Protocol: IP (0x0021)) ns3::Ipv4Header (tos 0x0 DSCP Default ECN Not-ECT ttl 64 id 6 protocol 6 offset (bytes) 0 flags [none] length: 40 10.1.1.2 > 10.1.1.1) ns3::TcpHeader (8080 > 49153 [ ACK ] Seq=1 Ack=4289 Win=65535)
+ 1.25602 /NodeList/0/DeviceList/0/$ns3::PointToPointNetDevice/TxQueue/Enqueue ns3::PppHeader (Point-to-Point Protocol: IP (0x0021)) ns3::Ipv4Header (tos 0x0 DSCP Default ECN Not-ECT ttl 64 id 12 protocol 6 offset (bytes) 0 flags [none] length: 576 10.1.1.1 > 10.1.1.2) ns3::TcpHeader (49153 > 8080 [ ACK ] Seq=4289 Ack=1 Win=65535) Payload Fragment [1368:1460] Payload Fragment [0:444]
- 1.25602 /NodeList/0/DeviceList/0/$ns3::PointToPointNetDevice/TxQueue/Dequeue ns3::PppHeader (Point-to-Point Protocol: IP (0x0021)) ns3::Ipv4Header (tos 0x0 DSCP Default ECN Not-ECT ttl 64 id 12 protocol 6 offset (bytes) 0 flags [none] length: 576 10.1.1.1 > 10.1.1.2) ns3::TcpHeader (49153 > 8080 [ ACK ] Seq=4289 Ack=1 Win=65535) Payload Fragment [1368:1460] Payload Fragment [0:444]
+ 1.25602 /NodeList/0/DeviceList/0/$ns3::PointToPointNetDevice/TxQueue/Enqueue ns3::PppHeader (Point-to-Point Protocol: IP (0x0021)) ns3::Ipv4Header (tos 0x0 DSCP Default ECN Not-ECT ttl 64 id 13 protocol 6 offset (bytes) 0 flags [none] length: 576 10.1.1.1 > 10.1.1.2) ns3::TcpHeader (49153 > 8080 [ ACK ] Seq=4825 Ack=1 Win=65535) Payload Fragment [444:980]
- 1.25694 /NodeList/0/DeviceList/0/$ns3::PointToPointNetDevice/TxQueue/Dequeue ns3::PppHeader (Point-to-Point Protocol: IP (0x0021)) ns3::Ipv4Header (tos 0x0 DSCP Default ECN Not-ECT ttl 64 id 13 protocol 6 offset (bytes) 0 flags [none] length: 576 10.1.1.1 > 10.1.1.2) ns3::TcpHeader (49153 > 8080 [ ACK ] Seq=4825 Ack=1 Win=65535) Payload Fragment [444:980]
r 1.26194 /NodeList/1/DeviceList/0/$ns3::PointToPointNetDevice/MacRx ns3::PppHeader (Point-to-Point Protocol: IP (0x0021)) ns3::Ipv4Header (tos 0x0 DSCP Default ECN Not-ECT ttl 64 id 12 protocol 6 offset (bytes) 0 flags [none] length: 576 10.1.1.1 > 10.1.1.2) ns3::TcpHeader (49153 > 8080 [ ACK ] Seq=4289 Ack=1 Win=65535) Payload Fragment [1368:1460] Payload Fragment [0:444]
r 1.26287 /NodeList/1/DeviceList/0/$ns3::PointToPointNetDevice/MacRx ns3::PppHeader (Point-to-Point Protocol: IP (0x0021)) ns3::Ipv4Header (tos 0x0 DSCP Default ECN Not-ECT ttl 64 id 13 protocol 6 offset (bytes) 0 flags [none] length: 576 10.1.1.1 > 10.1.1.2) ns3::TcpHeader (49153 > 8080 [ ACK ] Seq=4825 Ack=1 Win=65535) Payload Fragment [444:980]
+ 1.26287 /NodeList/1/DeviceList/0/$ns3::PointToPointNetDevice/TxQueue/Enqueue ns3::PppHeader (Point-to-Point Protocol: IP (0x0021)) ns3::Ipv4Header (tos 0x0 DSCP Default ECN Not-ECT ttl 64 id 7 protocol 6 offset (bytes) 0 flags [none] length: 40 10.1.1.2 > 10.1.1.1) ns3::TcpHeader (8080 > 49153 [ ACK ] Seq=1 Ack=5361 Win=65535)
- 1.26287 /NodeList/1/DeviceList/0/$ns3::PointToPointNetDevice/TxQueue/Dequeue ns3::PppHeader (Point-to-Point Protocol: IP (0x0021)) ns3::Ipv4Header (tos 0x0 DSCP Default ECN Not-ECT ttl 64 id 7 protocol 6 offset (bytes) 0 flags [none] length: 40 10.1.1.2 > 10.1.1.1) ns3::TcpHeader (8080 > 49153 [ ACK ] Seq=1 Ack=5361 Win=65535)
r 1.26794 /NodeList/0/DeviceList/0/$ns3::PointToPointNetDevice/MacRx ns3::PppHeader (Point-to-Point Protocol: IP (0x0021)) ns3::Ipv4Header (tos 0x0 DSCP Default ECN Not-ECT ttl 64 id 7 protocol 6 offset (bytes) 0 flags [none] length: 40 10.1.1.2 > 10.1.1.1) ns3::TcpHeader (8080 > 49153 [ ACK ] Seq=1 Ack=5361 Win=65535)
+ 1.26794 /NodeList/0/DeviceList/0/$ns3::PointToPointNetDevice/TxQueue/Enqueue ns3::PppHeader (Point-to-Point Protocol: IP (0x0021)) ns3::Ipv4Header (tos 0x0 DSCP Default ECN Not-ECT ttl 64 id 14 protocol 6 offset (bytes) 0 flags [none] length: 576 10.1.1.1 > 10.1.1.2) ns3::TcpHeader (49153 > 8080 [ ACK ] Seq=5361 Ack=1 Win=65535) Payload Fragment [980:1460] Payload Fragment [0:56]
- 1.26794 /NodeList/0/DeviceList/0/$ns3::PointToPointNetDevice/TxQueue/Dequeue ns3::PppHeader (Point-to-Point Protocol: IP (0x0021)) ns3::Ipv4Header (tos 0x0 DSCP Default ECN Not-ECT ttl 64 id 14 protocol 6 offset (bytes) 0 flags [none] length: 576 10.1.1.1 > 10.1.1.2) ns3::TcpHeader (49153 > 8080 [ ACK ] Seq=5361 Ack=1 Win=65535) Payload Fragment [980:1460] Payload Fragment [0:56]
+ 1.26794 /NodeList/0/DeviceList/0/$ns3::PointToPointNetDevice/TxQueue/Enqueue ns3::PppHeader (Point-to-Point Protocol: IP (0x0021)) ns3::Ipv4Header (tos 0x0 DSCP Default ECN Not-ECT ttl 64 id 15 protocol 6 offset (bytes) 0 flags [none] length: 576 10.1.1.1 > 10.1.1.2) ns3::TcpHeader (49153 > 8080 [ ACK ] Seq=5897 Ack=1 Win=65535) Payload Fragment [56:592]
- 1.26886 /NodeList/0/DeviceList/0/$ns3::PointToPointNetDevice/TxQueue/Dequeue ns3::PppHeader (Point-to-Point Protocol: IP (0x0021)) ns3::Ipv4Header (tos 0x0 DSCP Default ECN Not-ECT ttl 64 id 15 protocol 6 offset (bytes) 0 flags [none] length: 576 10.1.1.1 > 10.1.1.2) ns3::TcpHeader (49153 > 8080 [ ACK ] Seq=5897 Ack=1 Win=65535) Payload Fragment [56:592]
r 1.27386 /NodeList/1/DeviceList/0/$ns3::PointToPointNetDevice/MacRx ns3::PppHeader (Point-to-Point Protocol: IP (0x0021)) ns3::Ipv4Header (tos 0x0 DSCP Default ECN Not-ECT ttl 64 id 14 protocol 6 offset (bytes) 0 flags [none] length: 576 10.1.1.1 > 10.1.1.2) ns3::TcpHeader (49153 > 8080 [ ACK ] Seq=5361 Ack=1 Win=65535) Payload Fragment [980:1460] Payload Fragment [0:56]
r 1.27479 /NodeList/1/DeviceList/0/$ns3::PointToPointNetDevice/MacRx ns3::PppHeader (Point-to-Point Protocol: IP (0x0021)) ns3::Ipv4Header (tos 0x0 DSCP Default ECN Not-ECT ttl 64 id 15 protocol 6 offset (bytes) 0 flags [none] length: 576 10.1.1.1 > 10.1.1.2) ns3::TcpHeader (49153 > 8080 [ ACK ] Seq=5897 Ack=1 Win=65535) Payload Fragment [56:592]
+ 1.27479 /NodeList/1/DeviceList/0/$ns3::PointToPointNetDevice/TxQueue/Enqueue ns3::PppHeader (Point-to-Point Protocol: IP (0x0021)) ns3::Ipv4Header (tos 0x0 DSCP Default ECN Not-ECT ttl 64 id 8 protocol 6 offset (bytes) 0 flags [none] length: 40 10.1.1.2 > 10.1.1.1) ns3::TcpHeader (8080 > 49153 [ ACK ] Seq=1 Ack=6433 Win=65535)
- 1.27479 /NodeList/1/DeviceList/0/$ns3::PointToPointNetDevice/TxQueue/Dequeue ns3::PppHeader (Point-to-Point Protocol: IP (0x0021)) ns3::Ipv4Header (tos 0x0 DSCP Default ECN Not-ECT ttl 64 id 8 protocol 6 offset (bytes) 0 flags [none] length: 40 10.1.1.2 > 10.1.1.1) ns3::TcpHeader (8080 > 49153 [ ACK ] Seq=1 Ack=6433 Win=65535)
r 1.27985 /NodeList/0/DeviceList/0/$ns3::PointToPointNetDevice/MacRx ns3::PppHeader (Point-to-Point Protocol: IP (0x0021)) ns3::Ipv4Header (tos 0x0 DSCP Default ECN Not-ECT ttl 64 id 8 protocol 6 offset (bytes) 0 flags [none] length: 40 10.1.1.2 > 10.1.1.1) ns3::TcpHeader (8080 > 49153 [ ACK ] Seq=1 Ack=6433 Win=65535)
+ 1.27985 /NodeList/0/DeviceList/0/$ns3::PointToPointNetDevice/TxQueue/Enqueue ns3::PppHeader (Point-to-Point Protocol: IP (0x0021)) ns3::Ipv4Header (tos 0x0 DSCP Default ECN Not-ECT ttl 64 id 16 protocol 6 offset (bytes) 0 flags [none] length: 576 10.1.1.1 > 10.1.1.2) ns3::TcpHeader (49153 > 8080 [ ACK ] Seq=6433 Ack=1 Win=65535) Payload Fragment [592:1128]
- 1.27985 /NodeList/0/DeviceList/0/$ns3::PointToPointNetDevice/TxQueue/Dequeue ns3::PppHeader (Point-to-Point Protocol: IP (0x0021)) ns3::Ipv4Header (tos 0x0 DSCP Default ECN Not-ECT ttl 64 id 16 protocol 6 offset (bytes) 0 flags [none] length: 576 10.1.1.1 > 10.1.1.2) ns3::TcpHeader (49153 > 8080 [ ACK ] Seq=6433 Ack=1 Win=65535) Payload Fragment [592:1128]
+ 1.27985 /NodeList/0/DeviceList/0/$ns3::PointToPointNetDevice/TxQueue/Enqueue ns3::PppHeader (Point-to-Point Protocol: IP (0x0021)) ns3::Ipv4Header (tos 0x0 DSCP Default ECN Not-ECT ttl 64 id 17 protocol 6 offset (bytes) 0 flags [none] length: 576 10.1.1.1 > 10.1.1.2) ns3::TcpHeader (49153 > 8080 [ ACK ] Seq=6969 Ack=1 Win=65535) Payload Fragment [1128:1460] Payload Fragment [0:204]
- 1.28078 /NodeList/0/DeviceList/0/$ns3::PointToPointNetDevice/TxQueue/Dequeue ns3::PppHeader (Point-to-Point Protocol: IP (0x0021)) ns3::Ipv4Header (tos 0x0 DSCP Default ECN Not-ECT ttl 64 id 17 protocol 6 offset (bytes) 0 flags [none] length: 576 10.1.1.1 > 10.1.1.2) ns3::TcpHeader (49153 > 8080 [ ACK ] Seq=6969 Ack=1 Win=65535) Payload Fragment [1128:1460] Payload Fragment [0:204]
r 1.28578 /NodeList/1/DeviceList/0/$ns3::PointToPointNetDevice/MacRx ns3::PppHeader (Point-to-Point Protocol: IP (0x0021)) ns3::Ipv4Header (tos 0x0 DSCP Default ECN Not-ECT ttl 64 id 16 protocol 6 offset (bytes) 0 flags [none] length: 576 10.1.1.1 > 10.1.1.2) ns3::TcpHeader (49153 > 8080 [ ACK ] Seq=6433 Ack=1 Win=65535) Payload Fragment [592:1128]
r 1.2867 /NodeList/1/DeviceList/0/$ns3::PointToPointNetDevice/MacRx ns3::PppHeader (Point-to-Point Protocol: IP (0x0021)) ns3::Ipv4Header (tos 0x0 DSCP Default ECN Not-ECT ttl 64 id 17 protocol 6 offset (bytes) 0 flags [none] length: 576 10.1.1.1 > 10.1.1.2) ns3::TcpHeader (49153 > 8080 [ ACK ] Seq=6969 Ack=1 Win=65535) Payload Fragment [1128:1460] Payload Fragment [0:204]
+ 1.2867 /NodeList/1/DeviceList/0/$ns3::PointToPointNetDevice/TxQueue/Enqueue ns3::PppHeader (Point-to-Point Protocol: IP (0x0021)) ns3::Ipv4Header (tos 0x0 DSCP Default ECN Not-ECT ttl 64 id 9 protocol 6 offset (bytes) 0 flags [none] length: 40 10.1.1.2 > 10.1.1.1) ns3::TcpHeader (8080 > 49153 [ ACK ] Seq=1 Ack=7505 Win=65535)
- 1.2867 /NodeList/1/DeviceList/0/$ns3::PointToPointNetDevice/TxQueue/Dequeue ns3::PppHeader (Point-to-Point Protocol: IP (0x0021)) ns3::Ipv4Header (tos 0x0 DSCP Default ECN Not-ECT ttl 64 id 9 protocol 6 offset (bytes) 0 flags [none] length: 40 10.1.1.2 > 10.1.1.1) ns3::TcpHeader (8080 > 49153 [ ACK ] Seq=1 Ack=7505 Win=65535)
r 1.29177 /NodeList/0/DeviceList/0/$ns3::PointToPointNetDevice/MacRx ns3::PppHeader (Point-to-Point Protocol: IP (0x0021)) ns3::Ipv4Header (tos 0x0 DSCP Default ECN Not-ECT ttl 64 id 9 protocol 6 offset (bytes) 0 flags [none] length: 40 10.1.1.2 > 10.1.1.1) ns3::TcpHeader (8080 > 49153 [ ACK ] Seq=1 Ack=7505 Win=65535)
+ 1.29177 /NodeList/0/DeviceList/0/$ns3::PointToPointNetDevice/TxQueue/Enqueue ns3::PppHeader (Point-to-Point Protocol: IP (0x0021)) ns3::Ipv4Header (tos 0x0 DSCP Default ECN Not-ECT ttl 64 id 18 protocol 6 offset (bytes) 0 flags [none] length: 576 10.1.1.1 > 10.1.1.2) ns3::TcpHeader (49153 > 8080 [ ACK ] Seq=7505 Ack=1 Win=65535) Payload Fragment [204:740]
- 1.29177 /NodeList/0/DeviceList/0/$ns3::PointToPointNetDevice/TxQueue/Dequeue ns3::PppHeader (Point-to-Point Protocol: IP (0x0021)) ns3::Ipv4Header (tos 0x0 DSCP Default ECN Not-ECT ttl 64 id 18 protocol 6 offset (bytes) 0 flags [none] length: 576 10.1.1.1 > 10.1.1.2) ns3::TcpHeader (49153 > 8080 [ ACK ] Seq=7505 Ack=1 Win=65535) Payload Fragment [204:740]
+ 1.29177 /NodeList/0/DeviceList/0/$ns3::PointToPointNetDevice/TxQueue/Enqueue ns3::PppHeader (Point-to-Point Protocol: IP (0x0021)) ns3::Ipv4Header (tos 0x0 DSCP Default ECN Not-ECT ttl 64 id 19 protocol 6 offset (bytes) 0 flags [none] length: 576 10.1.1.1 > 10.1.1.2) ns3::TcpHeader (49153 > 8080 [ ACK ] Seq=8041 Ack=1 Win=65535) Payload Fragment [740:1276]
d 1.29177 /NodeList/0/DeviceList/0/$ns3::PointToPointNetDevice/TxQueue/Drop ns3::PppHeader (Point-to-Point Protocol: IP (0x0021)) ns3::Ipv4Header (tos 0x0 DSCP Default ECN Not-ECT ttl 64 id 20 protocol 6 offset (bytes) 0 flags [none] length: 576 10.1.1.1 > 10.1.1.2) ns3::TcpHeader (49153 > 8080 [ ACK ] Seq=8577 Ack=1 Win=65535) Payload Fragment [1276:1460] Payload Fragment [0:352]
- 1.29269 /NodeList/0/DeviceList/0/$ns3::PointToPointNetDevice/TxQueue/Dequeue ns3::PppHeader (Point-to-Point Protocol: IP (0x0021)) ns3::Ipv4Header (tos 0x0 DSCP Default ECN Not-ECT ttl 64 id 19 protocol 6 offset (bytes) 0 flags [none] length: 576 10.1.1.1 > 10.1.1.2) ns3::TcpHeader (49153 > 8080 [ ACK ] Seq=8041 Ack=1 Win=65535) Payload Fragment [740:1276]