+ 1 /NodeList/0/DeviceList/0/$ns3::PointToPointNetDevice/TxQueue/Enqueue ns3::PppHeader (Point-to-Point Protocol: IP (0x0021)) ns3::Ipv4Header (tos 0x0 DSCP Default ECN Not-ECT ttl 64 id 0 protocol 6 offset (bytes) 0 flags [none] length: 40 10.1.1.1 > 10.1.1.2) ns3::TcpHeader (49153 > 8080 [ SYN ] Seq=0 Ack=0 Win=65535)
- 1 /NodeList/0/DeviceList/0/$ns3::PointToPointNetDevice/TxQueue/Dequeue ns3::PppHeader (Point-to-Point Protocol: IP (0x0021)) ns3::Ipv4Header (tos 0x0 DSCP Default ECN Not-ECT ttl 64 id 0 protocol 6 offset (bytes) 0 flags [none] length: 40 10.1.1.1 > 10.1.1.2) ns3::TcpHeader (49153 > 8080 [ SYN ] Seq=0 Ack=0 Win=65535)
r 1.10007 /NodeList/1/DeviceList/0/$ns3::PointToPointNetDevice/MacRx ns3::PppHeader (Point-to-Point Protocol: IP (0x0021)) ns3::Ipv4Header (tos 0x0 DSCP Default ECN Not-ECT ttl 64 id 0 protocol 6 offset (bytes) 0 flags [none] length: 40 10.1.1.1 > 10.1.1.2) ns3::TcpHeader (49153 > 8080 [ SYN ] Seq=0 Ack=0 Win=65535)
+ 1.10007 /NodeList/1/DeviceList/0/$ns3::PointToPointNetDevice/TxQueue/Enqueue ns3::PppHeader (Point-to-Point Protocol: IP (0x0021)) ns3::Ipv4Header (tos 0x0 DSCP Default ECN Not-ECT ttl 64 id 0 protocol 6 offset (bytes) 0 flags [none] length: 40 10.1.1.2 > 10.1.1.1) ns3::TcpHeader (8080 > 49153 [ SYN  ACK ] Seq=0 Ack=1 Win=65535)
- 1.10007 /NodeList/1/DeviceList/0/$ns3::PointToPointNetDevice/TxQueue/Dequeue ns3::PppHeader (Point-to-Point Protocol: IP (0x0021)) ns3::Ipv4Header (tos 0x0 DSCP Default ECN Not-ECT ttl 64 id 0 protocol 6 offset (bytes) 0 flags [none] length: 40 10.1.1.2 > 10.1.1.1) ns3::TcpHeader (8080 > 49153 [ SYN  ACK ] Seq=0 Ack=1 Win=65535)
r 1.20013 /NodeList/0/DeviceList/0/$ns3::PointToPointNetDevice/MacRx ns3::PppHeader (Point-to-Point Protocol: IP (0x0021)) ns3::Ipv4Header (tos 0x0 DSCP Default ECN Not-ECT ttl 64 id 0 protocol 6 offset (bytes) 0 flags [none] length: 40 10.1.1.2 > 10.1.1.1) ns3::TcpHeader (8080 > 49153 [ SYN  ACK ] Seq=0 Ack=1 Win=65535)
+ 1.20013 /NodeList/0/DeviceList/0/$ns3::PointToPointNetDevice/TxQueue/Enqueue ns3::PppHeader (Point-to-Point Protocol: IP (0x0021)) ns3::Ipv4Header (tos 0x0 DSCP Default ECN Not-ECT ttl 64 id 1 protocol 6 offset (bytes) 0 flags [none] length: 40 10.1.1.1 > 10.1.1.2) ns3::TcpHeader (49153 > 8080 [ ACK ] Seq=1 Ack=1 Win=65535)
- 1.20013 /NodeList/0/DeviceList/0/$ns3::PointToPointNetDevice/TxQueue/Dequeue ns3::PppHeader (Point-to-Point Protocol: IP (0x0021)) ns3::Ipv4Header (tos 0x0 DSCP Default ECN Not-ECT ttl 64 id 1 protocol 6 offset (bytes) 0 flags [none] length: 40 10.1.1.1 > 10.1.1.2) ns3::TcpHeader (49153 > 8080 [ ACK ] Seq=1 Ack=1 Win=65535)
+ 1.20013 /NodeList/0/DeviceList/0/$ns3::PointToPointNetDevice/TxQueue/Enqueue ns3::PppHeader (Point-to-Point Protocol: IP (0x0021)) ns3::Ipv4Header (tos 0x0 DSCP Default ECN Not-ECT ttl 64 id 2 protocol 6 offset (bytes) 0 flags [none] length: 576 10.1.1.1 > 10.1.1.2) ns3::TcpHeader (49153 > 8080 [ ACK ] Seq=1 Ack=1 Win=65535) Payload Fragment [0:536]
- 1.2002 /NodeList/0/DeviceList/0/$ns3::PointToPointNetDevice/TxQueue/Dequeue ns3::PppHeader (Point-to-Point Protocol: IP (0x0021)) ns3::Ipv4Header (tos 0x0 DSCP Default ECN Not-ECT ttl 64 id 2 protocol 6 offset (bytes) 0 flags [none] length: 576 10.1.1.1 > 10.1.1.2) ns3::TcpHeader (49153 > 8080 [ ACK ] Seq=1 Ack=1 Win=65535) Payload Fragment [0:536]
r 1.3002 /NodeList/1/DeviceList/0/$ns3::PointToPointNetDevice/MacRx ns3::PppHeader (Point-to-Point Protocol: IP (0x0021)) ns3::Ipv4Header (tos 0x0 DSCP Default ECN Not-ECT ttl 64 id 1 protocol 6 offset (bytes) 0 flags [none] length: 40 10.1.1.1 > 10.1.1.2) ns3::TcpHeader (49153 > 8080 [ ACK ] Seq=1 Ack=1 Win=65535)
r 1.30113 /NodeList/1/DeviceList/0/$ns3::PointToPointNetDevice/MacRx ns3::PppHeader (Point-to-Point Protocol: IP (0x0021)) ns3::Ipv4Header (tos 0x0 DSCP Default ECN Not-ECT ttl 64 id 2 protocol 6 offset (bytes) 0 flags [none] length: 576 10.1.1.1 > 10.1.1.2) ns3::TcpHeader (49153 > 8080 [ ACK ] Seq=1 Ack=1 Win=65535) Payload Fragment [0:536]
+ 1.30113 /NodeList/1/DeviceList/0/$ns3::PointToPointNetDevice/TxQueue/Enqueue ns3::PppHeader (Point-to-Point Protocol: IP (0x0021)) ns3::Ipv4Header (tos 0x0 DSCP Default ECN Not-ECT ttl 64 id 1 protocol 6 offset (bytes) 0 flags [none] length: 40 10.1.1.2 > 10.1.1.1) ns3::TcpHeader (8080 > 49153 [ ACK ] Seq=1 Ack=537 Win=65535)
- 1.30113 /NodeList/1/DeviceList/0/$ns3::PointToPointNetDevice/TxQueue/Dequeue ns3::PppHeader (Point-to-Point Protocol: IP (0x0021)) ns3::Ipv4Header (tos 0x0 DSCP Default ECN Not-ECT ttl 64 id 1 protocol 6 offset (bytes) 0 flags [none] length: 40 10.1.1.2 > 10.1.1.1) ns3::TcpHeader (8080 > 49153 [ ACK ] Seq=1 Ack=537 Win=65535)
r 1.40119 /NodeList/0/DeviceList/0/$ns3::PointToPointNetDevice/MacRx ns3::PppHeader (Point-to-Point Protocol: IP (0x0021)) ns3::Ipv4Header (tos 0x0 DSCP Default ECN Not-ECT ttl 64 id 1 protocol 6 offset (bytes) 0 flags [none] length: 40 10.1.1.2 > 10.1.1.1) ns3::TcpHeader (8080 > 49153 [ ACK ] Seq=1 Ack=537 Win=65535)
+ 1.40119 /NodeList/0/DeviceList/0/$ns3::PointToPointNetDevice/TxQueue/Enqueue ns3::PppHeader (Point-to-Point Protocol: IP (0x0021)) ns3::Ipv4Header (tos 0x0 DSCP Default ECN Not-ECT ttl 64 id 3 protocol 6 offset (bytes) 0 flags [none] length: 576 10.1.1.1 > 10.1.1.2) ns3::TcpHeader (49153 > 8080 [ ACK ] Seq=537 Ack=1 Win=65535) Payload Fragment [536:1072]
- 1.40119 /NodeList/0/DeviceList/0/$ns3::PointToPointNetDevice/TxQueue/Dequeue ns3::PppHeader (Point-to-Point Protocol: IP (0x0021)) ns3::Ipv4Header (tos 0x0 DSCP Default ECN Not-ECT ttl 64 id 3 protocol 6 offset (bytes) 0 flags [none] length: 576 10.1.1.1 > 10.1.1.2) ns3::TcpHeader (49153 > 8080 [ ACK ] Seq=537 Ack=1 Win=65535) Payload Fragment [536:1072]
+ 1.40119 /NodeList/0/DeviceList/0/$ns3::PointToPointNetDevice/TxQueue/Enqueue ns3::PppHeader (Point-to-Point Protocol: IP (0x0021)) ns3::Ipv4Header (tos 0x0 DSCP Default ECN Not-ECT ttl 64 id 4 protocol 6 offset (bytes) 0 flags [none] length: 576 10.1.1.1 > 10.1.1.2) ns3::TcpHeader (49153 > 8080 [ ACK ] Seq=1073 Ack=1 Win=65535) Payload Fragment [1072:1460] Payload Fragment [0:148]
- 1.40212 /NodeList/0/DeviceList/0/$ns3::PointToPointNetDevice/TxQueue/Dequeue ns3::PppHeader (Point-to-Point Protocol: IP (0x0021)) ns3::Ipv4Header (tos 0x0 DSCP Default ECN Not-ECT ttl 64 id 4 protocol 6 offset (bytes) 0 flags [none] length: 576 10.1.1.1 > 10.1.1.2) ns3::TcpHeader (49153 > 8080 [ ACK ] Seq=1073 Ack=1 Win=65535) Payload Fragment [1072:1460] Payload Fragment [0:148]
r 1.50212 /NodeList/1/DeviceList/0/$ns3::PointToPointNetDevice/MacRx ns3::PppHeader (Point-to-Point Protocol: IP (0x0021)) ns3::Ipv4Header (tos 0x0 DSCP Default ECN Not-ECT ttl 64 id 3 protocol 6 offset (bytes) 0 flags [none] length: 576 10.1.1.1 > 10.1.1.2) ns3::TcpHeader (49153 > 8080 [ ACK ] Seq=537 Ack=1 Win=65535) Payload Fragment [536:1072]
r 1.50304 /NodeList/1/DeviceList/0/$ns3::PointToPointNetDevice/MacRx ns3::PppHeader (Point-to-Point Protocol: IP (0x0021)) ns3::Ipv4Header (tos 0x0 DSCP Default ECN Not-ECT ttl 64 id 4 protocol 6 offset (bytes) 0 flags [none] length: 576 10.1.1.1 > 10.1.1.2) ns3::TcpHeader (49153 > 8080 [ ACK ] Seq=1073 Ack=1 Win=65535) Payload Fragment [1072:1460] Payload Fragment [0:148]
+ 1.50304 /NodeList/1/DeviceList/0/$ns3::PointToPointNetDevice/TxQueue/Enqueue ns3::PppHeader (Point-to-Point Protocol: IP (0x0021)) ns3::Ipv4Header (tos 0x0 DSCP Default ECN Not-ECT ttl 64 id 2 protocol 6 offset (bytes) 0 flags [none] length: 40 10.1.1.2 > 10.1.1.1) ns3::TcpHeader (8080 > 49153 [ ACK ] Seq=1 Ack=1609 Win=65535)
- 1.50304 /NodeList/1/DeviceList/0/$ns3::PointToPointNetDevice/TxQueue/Dequeue ns3::PppHeader (Point-to-Point Protocol: IP (0x0021)) ns3::Ipv4Header (tos 0x0 DSCP Default ECN Not-ECT ttl 64 id 2 protocol 6 offset (bytes) 0 flags [none] length: 40 10.1.1.2 > 10.1.1.1) ns3::TcpHeader (8080 > 49153 [ ACK ] Seq=1 Ack=1609 Win=65535)
r 1.60311 /NodeList/0/DeviceList/0/$ns3::PointToPointNetDevice/MacRx ns3::PppHeader (Point-to-Point Protocol: IP (0x0021)) ns3::Ipv4Header (tos 0x0 DSCP Default ECN Not-ECT ttl 64 id 2 protocol 6 offset (bytes) 0 flags [none] length: 40 10.1.1.2 > 10.1.1.1) ns3::TcpHeader (8080 > 49153 [ ACK ] Seq=1 Ack=1609 Win=65535)
+ 1.60311 /NodeList/0/DeviceList/0/$ns3::PointToPointNetDevice/TxQueue/Enqueue ns3::PppHeader (Point-to-Point Protocol: IP (0x0021)) ns3::Ipv4Header (tos 0x0 DSCP Default ECN Not-ECT ttl 64 id 5 protocol 6 offset (bytes) 0 flags [none] length: 576 10.1.1.1 > 10.1.1.2) ns3::TcpHeader (49153 > 8080 [ ACK ] Seq=1609 Ack=1 Win=65535) Payload Fragment [148:684]
- 1.60311 /NodeList/0/DeviceList/0/$ns3::PointToPointNetDevice/TxQueue/Dequeue ns3::PppHeader (Point-to-Point Protocol: IP (0x0021)) ns3::Ipv4Header (tos 0x0 DSCP Default ECN Not-ECT ttl 64 id 5 protocol 6 offset (bytes) 0 flags [none] length: 576 10.1.1.1 > 10.1.1.2) ns3::TcpHeader (49153 > 8080 [ ACK ] Seq=1609 Ack=1 Win=65535) Payload Fragment [148:684]
+ 1.60311 /NodeList/0/DeviceList/0/$ns3::PointToPointNetDevice/TxQueue/Enqueue ns3::PppHeader (Point-to-Point Protocol: IP (0x0021)) ns3::Ipv4Header (tos 0x0 DSCP Default ECN Not-ECT ttl 64 id 6 protocol 6 offset (bytes) 0 flags [none] length: 576 10.1.1.1 > 10.1.1.2) ns3::TcpHeader (49153 > 8080 [ ACK ] Seq=2145 Ack=1 Win=65535) Payload Fragment [684:1220]
+ 1.60311 /NodeList/0/DeviceList/0/$ns3::PointToPointNetDevice/TxQueue/Enqueue ns3::PppHeader (Point-to-Point Protocol: IP (0x0021)) ns3::Ipv4Header (tos 0x0 DSCP Default ECN Not-ECT ttl 64 id 7 protocol 6 offset (bytes) 0 flags [none] length: 576 10.1.1.1 > 10.1.1.2) ns3::TcpHeader (49153 > 8080 [ ACK ] Seq=2681 Ack=1 Win=65535) Payload Fragment [1220:1460] Payload Fragment [0:296]
- 1.60404 /NodeList/0/DeviceList/0/$ns3::PointToPointNetDevice/TxQueue/Dequeue ns3::PppHeader (Point-to-Point Protocol: IP (0x0021)) ns3::Ipv4Header (tos 0x0 DSCP Default ECN Not-ECT ttl 64 id 6 protocol 6 offset (bytes) 0 flags [none] length: 576 10.1.1.1 > 10.1.1.2) ns3::TcpHeader (49153 > 8080 [ ACK ] Seq=2145 Ack=1 Win=65535) Payload Fragment [684:1220]
- 1.60496 /NodeList/0/DeviceList/0/$ns3::PointToPointNetDevice/TxQueue/Dequeue ns3::PppHeader (Point-to-Point Protocol: IP (0x0021)) ns3::Ipv4Header (tos 0x0 DSCP Default ECN Not-ECT ttl 64 id 7 protocol 6 offset (bytes) 0 flags [none] length: 576 10.1.1.1 > 10.1.1.2) ns3::TcpHeader (49153 > 8080 [ ACK ] Seq=2681 Ack=1 Win=65535) Payload Fragment [1220:1460] Payload Fragment [0:296]
r 1.70404 /NodeList/1/DeviceList/0/$ns3::PointToPointNetDevice/MacRx ns3::PppHeader (Point-to-Point Protocol: IP (0x0021)) ns3::Ipv4Header (tos 0x0 DSCP Default ECN Not-ECT ttl 64 id 5 protocol 6 offset (bytes) 0 flags [none] length: 576 10.1.1.1 > 10.1.1.2) ns3::TcpHeader (49153 > 8080 [ ACK ] Seq=1609 Ack=1 Win=65535) Payload Fragment [148:684]
r 1.70496 /NodeList/1/DeviceList/0/$ns3::PointToPointNetDevice/MacRx ns3::PppHeader (Point-to-Point Protocol: IP (0x0021)) ns3::Ipv4Header (tos 0x0 DSCP Default ECN Not-ECT ttl 64 id 6 protocol 6 offset (bytes) 0 flags [none] length: 576 10.1.1.1 > 10.1.1.2) ns3::TcpHeader (49153 > 8080 [ ACK ] Seq=2145 Ack=1 Win=65535) Payload Fragment [684:1220]
+ 1.70496 /NodeList/1/DeviceList/0/$ns3::PointToPointNetDevice/TxQueue/Enqueue ns3::PppHeader (Point-to-Point Protocol: IP (0x0021)) ns3::Ipv4Header (tos 0x0 DSCP Default ECN Not-ECT ttl 64 id 3 protocol 6 offset (bytes) 0 flags [none] length: 40 10.1.1.2 > 10.1.1.1) ns3::TcpHeader (8080 > 49153 [ ACK ] Seq=1 Ack=2681 Win=65535)
- 1.70496 /NodeList/1/DeviceList/0/$ns3::PointToPointNetDevice/TxQueue/Dequeue ns3::PppHeader (Point-to-Point Protocol: IP (0x0021)) ns3::Ipv4Header (tos 0x0 DSCP Default ECN Not-ECT ttl 64 id 3 protocol 6 offset (bytes) 0 flags [none] length: 40 10.1.1.2 > 10.1.1.1) ns3::TcpHeader (8080 > 49153 [ ACK ] Seq=1 Ack=2681 Win=65535)
r 1.70588 /NodeList/1/DeviceList/0/$ns3::PointToPointNetDevice/MacRx ns3::PppHeader (Point-to-Point Protocol: IP (0x0021)) ns3::Ipv4Header (tos 0x0 DSCP Default ECN Not-ECT ttl 64 id 7 protocol 6 offset (bytes) 0 flags [none] length: 576 10.1.1.1 > 10.1.1.2) ns3::TcpHeader (49153 > 8080 [ ACK ] Seq=2681 Ack=1 Win=65535) Payload Fragment [1220:1460] Payload Fragment [0:296]
r 1.80503 /NodeList/0/DeviceList/0/$ns3::PointToPointNetDevice/MacRx ns3::PppHeader (Point-to-Point Protocol: IP (0x0021)) ns3::Ipv4Header (tos 0x0 DSCP Default ECN Not-ECT ttl 64 id 3 protocol 6 offset (bytes) 0 flags [none] length: 40 10.1.1.2 > 10.1.1.1) ns3::TcpHeader (8080 > 49153 [ ACK ] Seq=1 Ack=2681 Win=65535)
+ 1.80503 /NodeList/0/DeviceList/0/$ns3::PointToPointNetDevice/TxQueue/Enqueue ns3::PppHeader (Point-to-Point Protocol: IP (0x0021)) ns3::Ipv4Header (tos 0x0 DSCP Default ECN Not-ECT ttl 64 id 8 protocol 6 offset (bytes) 0 flags [none] length: 576 10.1.1.1 > 10.1.1.2) ns3::TcpHeader (49153 > 8080 [ ACK ] Seq=3217 Ack=1 Win=65535) Payload Fragment [296:832]
- 1.80503 /NodeList/0/DeviceList/0/$ns3::PointToPointNetDevice/TxQueue/Dequeue ns3::PppHeader (Point-to-Point Protocol: IP (0x0021)) ns3::Ipv4Header (tos 0x0 DSCP Default ECN Not-ECT ttl 64 id 8 protocol 6 offset (bytes) 0 flags [none] length: 576 10.1.1.1 > 10.1.1.2) ns3::TcpHeader (49153 > 8080 [ ACK ] Seq=3217 Ack=1 Win=65535) Payload Fragment [296:832]
+ 1.80503 /NodeList/0/DeviceList/0/$ns3::PointToPointNetDevice/TxQueue/Enqueue ns3::PppHeader (Point-to-Point Protocol: IP (0x0021)) ns3::Ipv4Header (tos 0x0 DSCP Default ECN Not-ECT ttl 64 id 9 protocol 6 offset (bytes) 0 flags [none] length: 576 10.1.1.1 > 10.1.1.2) ns3::TcpHeader (49153 > 8080 [ ACK ] Seq=3753 Ack=1 Win=65535) Payload Fragment [832:1368]
+ 1.80503 /NodeList/0/DeviceList/0/$ns3::PointToPointNetDevice/TxQueue/Enqueue ns3::PppHeader (Point-to-Point Protocol: IP (0x0021)) ns3::Ipv4Header (tos 0x0 DSCP Default ECN Not-ECT ttl 64 id 10 protocol 6 offset (bytes) 0 flags [none] length: 576 10.1.1.1 > 10.1.1.2) ns3::TcpHeader (49153 > 8080 [ ACK ] Seq=4289 Ack=1 Win=65535) Payload Fragment [1368:1460] Payload Fragment [0:444]
- 1.80595 /NodeList/0/DeviceList/0/$ns3::PointToPointNetDevice/TxQueue/Dequeue ns3::PppHeader (Point-to-Point Protocol: IP (0x0021)) ns3::Ipv4Header (tos 0x0 DSCP Default ECN Not-ECT ttl 64 id 9 protocol 6 offset (bytes) 0 flags [none] length: 576 10.1.1.1 > 10.1.1.2) ns3::TcpHeader (49153 > 8080 [ ACK ] Seq=3753 Ack=1 Win=65535) Payload Fragment [832:1368]
- 1.80688 /NodeList/0/DeviceList/0/$ns3::PointToPointNetDevice/TxQueue/Dequeue ns3::PppHeader (Point-to-Point Protocol: IP (0x0021)) ns3::Ipv4Header (tos 0x0 DSCP Default ECN Not-ECT ttl 64 id 10 protocol 6 offset (bytes) 0 flags [none] length: 576 10.1.1.1 > 10.1.1.2) ns3::TcpHeader (49153 > 8080 [ ACK ] Seq=4289 Ack=1 Win=65535) Payload Fragment [1368:1460] Payload Fragment [0:444]
+ 1.90588 /NodeList/1/DeviceList/0/$ns3::PointToPointNetDevice/TxQueue/Enqueue ns3::PppHeader (Point-to-Point Protocol: IP (0x0021)) ns3::Ipv4Header (tos 0x0 DSCP Default ECN Not-ECT ttl 64 id 4 protocol 6 offset (bytes) 0 flags [none] length: 40 10.1.1.2 > 10.1.1.1) ns3::TcpHeader (8080 > 49153 [ ACK ] Seq=1 Ack=3217 Win=65535)
- 1.90588 /NodeList/1/DeviceList/0/$ns3::PointToPointNetDevice/TxQueue/Dequeue ns3::PppHeader (Point-to-Point Protocol: IP (0x0021)) ns3::Ipv4Header (tos 0x0 DSCP Default ECN Not-ECT ttl 64 id 4 protocol 6 offset (bytes) 0 flags [none] length: 40 10.1.1.2 > 10.1.1.1) ns3::TcpHeader (8080 > 49153 [ ACK ] Seq=1 Ack=3217 Win=65535)
r 1.90595 /NodeList/1/DeviceList/0/$ns3::PointToPointNetDevice/MacRx ns3::PppHeader (Point-to-Point Protocol: IP (0x0021)) ns3::Ipv4Header (tos 0x0 DSCP Default ECN Not-ECT ttl 64 id 8 protocol 6 offset (bytes) 0 flags [none] length: 576 10.1.1.1 > 10.1.1.2) ns3::TcpHeader (49153 > 8080 [ ACK ] Seq=3217 Ack=1 Win=65535) Payload Fragment [296:832]
r 1.90688 /NodeList/1/DeviceList/0/$ns3::PointToPointNetDevice/MacRx ns3::PppHeader (Point-to-Point Protocol: IP (0x0021)) ns3::Ipv4Header (tos 0x0 DSCP Default ECN Not-ECT ttl 64 id 9 protocol 6 offset (bytes) 0 flags [none] length: 576 10.1.1.1 > 10.1.1.2) ns3::TcpHeader (49153 > 8080 [ ACK ] Seq=3753 Ack=1 Win=65535) Payload Fragment [832:1368]
+ 1.90688 /NodeList/1/DeviceList/0/$ns3::PointToPointNetDevice/TxQueue/Enqueue ns3::PppHeader (Point-to-Point Protocol: IP (0x0021)) ns3::Ipv4Header (tos 0x0 DSCP Default ECN Not-ECT ttl 64 id 5 protocol 6 offset (bytes) 0 flags [none] length: 40 10.1.1.2 > 10.1.1.1) ns3::TcpHeader (8080 > 49153 [ ACK ] Seq=1 Ack=4289 Win=65535)
- 1.90688 /NodeList/1/DeviceList/0/$ns3::PointToPointNetDevice/TxQueue/Dequeue ns3::PppHeader (Point-to-Point Protocol: IP (0x0021)) ns3::Ipv4Header (tos 0x0 DSCP Default ECN Not-ECT ttl 64 id 5 protocol 6 offset (bytes) 0 flags [none] length: 40 10.1.1.2 > 10.1.1.1) ns3::TcpHeader (8080 > 49153 [ ACK ] Seq=1 Ack=4289 Win=65535)
r 1.9078 /NodeList/1/DeviceList/0/$ns3::PointToPointNetDevice/MacRx ns3::PppHeader (Point-to-Point Protocol: IP (0x0021)) ns3::Ipv4Header (tos 0x0 DSCP Default ECN Not-ECT ttl 64 id 10 protocol 6 offset (bytes) 0 flags [none] length: 576 10.1.1.1 > 10.1.1.2) ns3::TcpHeader (49153 > 8080 [ ACK ] Seq=4289 Ack=1 Win=65535) Payload Fragment [1368:1460] Payload Fragment [0:444]
r 2.00595 /NodeList/0/DeviceList/0/$ns3::PointToPointNetDevice/MacRx ns3::PppHeader (Point-to-Point Protocol: IP (0x0021)) ns3::Ipv4Header (tos 0x0 DSCP Default ECN Not-ECT ttl 64 id 4 protocol 6 offset (bytes) 0 flags [none] length: 40 10.1.1.2 > 10.1.1.1) ns3::TcpHeader (8080 > 49153 [ ACK ] Seq=1 Ack=3217 Win=65535)
+ 2.00595 /NodeList/0/DeviceList/0/$ns3::PointToPointNetDevice/TxQueue/Enqueue ns3::PppHeader (Point-to-Point Protocol: IP (0x0021)) ns3::Ipv4Header (tos 0x0 DSCP Default ECN Not-ECT ttl 64 id 11 protocol 6 offset (bytes) 0 flags [none] length: 576 10.1.1.1 > 10.1.1.2) ns3::TcpHeader (49153 > 8080 [ ACK ] Seq=4825 Ack=1 Win=65535) Payload Fragment [444:980]
- 2.00595 /NodeList/0/DeviceList/0/$ns3::PointToPointNetDevice/TxQueue/Dequeue ns3::PppHeader (Point-to-Point Protocol: IP (0x0021)) ns3::Ipv4Header (tos 0x0 DSCP Default ECN Not-ECT ttl 64 id 11 protocol 6 offset (bytes) 0 flags [none] length: 576 10.1.1.1 > 10.1.1.2) ns3::TcpHeader (49153 > 8080 [ ACK ] Seq=4825 Ack=1 Win=65535) Payload Fragment [444:980]
+ 2.00595 /NodeList/0/DeviceList/0/$ns3::PointToPointNetDevice/TxQueue/Enqueue ns3::PppHeader (Point-to-Point Protocol: IP (0x0021)) ns3::Ipv4Header (tos 0x0 DSCP Default ECN Not-ECT ttl 64 id 12 protocol 6 offset (bytes) 0 flags [none] length: 576 10.1.1.1 > 10.1.1.2) ns3::TcpHeader (49153 > 8080 [ ACK ] Seq=5361 Ack=1 Win=65535) Payload Fragment [980:1460] Payload Fragment [0:56]
- 2.00688 /NodeList/0/DeviceList/0/$ns3::PointToPointNetDevice/TxQueue/Dequeue ns3::PppHeader (Point-to-Point Protocol: IP (0x0021)) ns3::Ipv4Header (tos 0x0 DSCP Default ECN Not-ECT ttl 64 id 12 protocol 6 offset (bytes) 0 flags [none] length: 576 10.1.1.1 > 10.1.1.2) ns3::TcpHeader (49153 > 8080 [ ACK ] Seq=5361 Ack=1 Win=65535) Payload Fragment [980:1460] Payload Fragment [0:56]
r 2.00694 /NodeList/0/DeviceList/0/$ns3::PointToPointNetDevice/MacRx ns3::PppHeader (Point-to-Point Protocol: IP (0x0021)) ns3::Ipv4Header (tos 0x0 DSCP Default ECN Not-ECT ttl 64 id 5 protocol 6 offset (bytes) 0 flags [none] length: 40 10.1.1.2 > 10.1.1.1) ns3::TcpHeader (8080 > 49153 [ ACK ] Seq=1 Ack=4289 Win=65535)
+ 2.00694 /NodeList/0/DeviceList/0/$ns3::PointToPointNetDevice/TxQueue/Enqueue ns3::PppHeader (Point-to-Point Protocol: IP (0x0021)) ns3::Ipv4Header (tos 0x0 DSCP Default ECN Not-ECT ttl 64 id 13 protocol 6 offset (bytes) 0 flags [none] length: 576 10.1.1.1 > 10.1.1.2) ns3::TcpHeader (49153 > 8080 [ ACK ] Seq=5897 Ack=1 Win=65535) Payload Fragment [56:592]
+ 2.00694 /NodeList/0/DeviceList/0/$ns3::PointToPointNetDevice/TxQueue/Enqueue ns3::PppHeader (Point-to-Point Protocol: IP (0x0021)) ns3::Ipv4Header (tos 0x0 DSCP Default ECN Not-ECT ttl 64 id 14 protocol 6 offset (bytes) 0 flags [none] length: 576 10.1.1.1 > 10.1.1.2) ns3::TcpHeader (49153 > 8080 [ ACK ] Seq=6433 Ack=1 Win=65535) Payload Fragment [592:1128]
+ 2.00694 /NodeList/0/DeviceList/0/$ns3::PointToPointNetDevice/TxQueue/Enqueue ns3::PppHeader (Point-to-Point Protocol: IP (0x0021)) ns3::Ipv4Header (tos 0x0 DSCP Default ECN Not-ECT ttl 64 id 15 protocol 6 offset (bytes) 0 flags [none] length: 576 10.1.1.1 > 10.1.1.2) ns3::TcpHeader (49153 > 8080 [ ACK ] Seq=6969 Ack=1 Win=65535) Payload Fragment [1128:1460] Payload Fragment [0:204]
- 2.0078 /NodeList/0/DeviceList/0/$ns3::PointToPointNetDevice/TxQueue/Dequeue ns3::PppHeader (Point-to-Point Protocol: IP (0x0021)) ns3::Ipv4Header (tos 0x0 DSCP Default ECN Not-ECT ttl 64 id 13 protocol 6 offset (bytes) 0 flags [none] length: 576 10.1.1.1 > 10.1.1.2) ns3::TcpHeader (49153 > 8080 [ ACK ] Seq=5897 Ack=1 Win=65535) Payload Fragment [56:592]
- 2.00873 /NodeList/0/DeviceList/0/$ns3::PointToPointNetDevice/TxQueue/Dequeue ns3::PppHeader (Point-to-Point Protocol: IP (0x0021)) ns3::Ipv4Header (tos 0x0 DSCP Default ECN Not-ECT ttl 64 id 14 protocol 6 offset (bytes) 0 flags [none] length: 576 10.1.1.1 > 10.1.1.2) ns3::TcpHeader (49153 > 8080 [ ACK ] Seq=6433 Ack=1 Win=65535) Payload Fragment [592:1128]
- 2.00965 /NodeList/0/DeviceList/0/$ns3::PointToPointNetDevice/TxQueue/Dequeue ns3::PppHeader (Point-to-Point Protocol: IP (0x0021)) ns3::Ipv4Header (tos 0x0 DSCP Default ECN Not-ECT ttl 64 id 15 protocol 6 offset (bytes) 0 flags [none] length: 576 10.1.1.1 > 10.1.1.2) ns3::TcpHeader (49153 > 8080 [ ACK ] Seq=6969 Ack=1 Win=65535) Payload Fragment [1128:1460] Payload Fragment [0:204]
r 2.10688 /NodeList/1/DeviceList/0/$ns3::PointToPointNetDevice/MacRx ns3::PppHeader (Point-to-Point Protocol: IP (0x0021)) ns3::Ipv4Header (tos 0x0 DSCP Default ECN Not-ECT ttl 64 id 11 protocol 6 offset (bytes) 0 flags [none] length: 576 10.1.1.1 > 10.1.1.2) ns3::TcpHeader (49153 > 8080 [ ACK ] Seq=4825 Ack=1 Win=65535) Payload Fragment [444:980]
+ 2.10688 /NodeList/1/DeviceList/0/$ns3::PointToPointNetDevice/TxQueue/Enqueue ns3::PppHeader (Point-to-Point Protocol: IP (0x0021)) ns3::Ipv4Header (tos 0x0 DSCP Default ECN Not-ECT ttl 64 id 6 protocol 6 offset (bytes) 0 flags [none] length: 40 10.1.1.2 > 10.1.1.1) ns3::TcpHeader (8080 > 49153 [ ACK ] Seq=1 Ack=5361 Win=65535)
- 2.10688 /NodeList/1/DeviceList/0/$ns3::PointToPointNetDevice/TxQueue/Dequeue ns3::PppHeader (Point-to-Point Protocol: IP (0x0021)) ns3::Ipv4Header (tos 0x0 DSCP Default ECN Not-ECT ttl 64 id 6 protocol 6 offset (bytes) 0 flags [none] length: 40 10.1.1.2 > 10.1.1.1) ns3::TcpHeader (8080 > 49153 [ ACK ] Seq=1 Ack=5361 Win=65535)
r 2.1078 /NodeList/1/DeviceList/0/$ns3::PointToPointNetDevice/MacRx ns3::PppHeader (Point-to-Point Protocol: IP (0x0021)) ns3::Ipv4Header (tos 0x0 DSCP Default ECN Not-ECT ttl 64 id 12 protocol 6 offset (bytes) 0 flags [none] length: 576 10.1.1.1 > 10.1.1.2) ns3::TcpHeader (49153 > 8080 [ ACK ] Seq=5361 Ack=1 Win=65535) Payload Fragment [980:1460] Payload Fragment [0:56]
r 2.10873 /NodeList/1/DeviceList/0/$ns3::PointToPointNetDevice/MacRx ns3::PppHeader (Point-to-Point Protocol: IP (0x0021)) ns3::Ipv4Header (tos 0x0 DSCP Default ECN Not-ECT ttl 64 id 13 protocol 6 offset (bytes) 0 flags [none] length: 576 10.1.1.1 > 10.1.1.2) ns3::TcpHeader (49153 > 8080 [ ACK ] Seq=5897 Ack=1 Win=65535) Payload Fragment [56:592]
+ 2.10873 /NodeList/1/DeviceList/0/$ns3::PointToPointNetDevice/TxQueue/Enqueue ns3::PppHeader (Point-to-Point Protocol: IP (0x0021)) ns3::Ipv4Header (tos 0x0 DSCP Default ECN Not-ECT ttl 64 id 7 protocol 6 offset (bytes) 0 flags [none] length: 40 10.1.1.2 > 10.1.1.1) ns3::TcpHeader (8080 > 49153 [ ACK ] Seq=1 Ack=6433 Win=65535)
- 2.10873 /NodeList/1/DeviceList/0/$ns3::PointToPointNetDevice/TxQueue/Dequeue ns3::PppHeader (Point-to-Point Protocol: IP (0x0021)) ns3::Ipv4Header (tos 0x0 DSCP Default ECN Not-ECT ttl 64 id 7 protocol 6 offset (bytes) 0 flags [none] length: 40 10.1.1.2 > 10.1.1.1) ns3::TcpHeader (8080 > 49153 [ ACK ] Seq=1 Ack=6433 Win=65535)
r 2.10965 /NodeList/1/DeviceList/0/$ns3::PointToPointNetDevice/MacRx ns3::PppHeader (Point-to-Point Protocol: IP (0x0021)) ns3::Ipv4Header (tos 0x0 DSCP Default ECN Not-ECT ttl 64 id 14 protocol 6 offset (bytes) 0 flags [none] length: 576 10.1.1.1 > 10.1.1.2) ns3::TcpHeader (49153 > 8080 [ ACK ] Seq=6433 Ack=1 Win=65535) Payload Fragment [592:1128]
r 2.11058 /NodeList/1/DeviceList/0/$ns3::PointToPointNetDevice/MacRx ns3::PppHeader (Point-to-Point Protocol: IP (0x0021)) ns3::Ipv4Header (tos 0x0 DSCP Default ECN Not-ECT ttl 64 id 15 protocol 6 offset (bytes) 0 flags [none] length: 576 10.1.1.1 > 10.1.1.2) ns3::TcpHeader (49153 > 8080 [ ACK ] Seq=6969 Ack=1 Win=65535) Payload Fragment [1128:1460] Payload Fragment [0:204]
+ 2.11058 /NodeList/1/DeviceList/0/$ns3::PointToPointNetDevice/TxQueue/Enqueue ns3::PppHeader (Point-to-Point Protocol: IP (0x0021)) ns3::Ipv4Header (tos 0x0 DSCP Default ECN Not-ECT ttl 64 id 8 protocol 6 offset (bytes) 0 flags [none] length: 40 10.1.1.2 > 10.1.1.1) ns3::TcpHeader (8080 > 49153 [ ACK ] Seq=1 Ack=7505 Win=65535)
- 2.11058 /NodeList/1/DeviceList/0/$ns3::PointToPointNetDevice/TxQueue/Dequeue ns3::PppHeader (Point-to-Point Protocol: IP (0x0021)) ns3::Ipv4Header (tos 0x0 DSCP Default ECN Not-ECT ttl 64 id 8 protocol 6 offset (bytes) 0 flags [none] length: 40 10.1.1.2 > 10.1.1.1) ns3::TcpHeader (8080 > 49153 [ ACK ] Seq=1 Ack=7505 Win=65535)
r 2.20694 /NodeList/0/DeviceList/0/$ns3::PointToPointNetDevice/MacRx ns3::PppHeader (Point-to-Point Protocol: IP (0x0021)) ns3::Ipv4Header (tos 0x0 DSCP Default ECN Not-ECT ttl 64 id 6 protocol 6 offset (bytes) 0 flags [none] length: 40 10.1.1.2 > 10.1.1.1) ns3::TcpHeader (8080 > 49153 [ ACK ] Seq=1 Ack=5361 Win=65535)
+ 2.20694 /NodeList/0/DeviceList/0/$ns3::PointToPointNetDevice/TxQueue/Enqueue ns3::PppHeader (Point-to-Point Protocol: IP (0x0021)) ns3::Ipv4Header (tos 0x0 DSCP Default ECN Not-ECT ttl 64 id 16 protocol 6 offset (bytes) 0 flags [none] length: 576 10.1.1.1 > 10.1.1.2) ns3::TcpHeader (49153 > 8080 [ ACK ] Seq=7505 Ack=1 Win=65535) Payload Fragment [204:740]
- 2.20694 /NodeList/0/DeviceList/0/$ns3::PointToPointNetDevice/TxQueue/Dequeue ns3::PppHeader (Point-to-Point Protocol: IP (0x0021)) ns3::Ipv4Header (tos 0x0 DSCP Default ECN Not-ECT ttl 64 id 16 protocol 6 offset (bytes) 0 flags [none] length: 576 10.1.1.1 > 10.1.1.2) ns3::TcpHeader (49153 > 8080 [ ACK ] Seq=7505 Ack=1 Win=65535) Payload Fragment [204:740]
+ 2.20694 /NodeList/0/DeviceList/0/$ns3::PointToPointNetDevice/TxQueue/Enqueue ns3::PppHeader (Point-to-Point Protocol: IP (0x0021)) ns3::Ipv4Header (tos 0x0 DSCP Default ECN Not-ECT ttl 64 id 17 protocol 6 offset (bytes) 0 flags [none] length: 576 10.1.1.1 > 10.1.1.2) ns3::TcpHeader (49153 > 8080 [ ACK ] Seq=8041 Ack=1 Win=65535) Payload Fragment [740:1276]
+ 2.20694 /NodeList/0/DeviceList/0/$ns3::PointToPointNetDevice/TxQueue/Enqueue ns3::PppHeader (Point-to-Point Protocol: IP (0x0021)) ns3::Ipv4Header (tos 0x0 DSCP Default ECN Not-ECT ttl 64 id 18 protocol 6 offset (bytes) 0 flags [none] length: 576 10.1.1.1 > 10.1.1.2) ns3::TcpHeader (49153 > 8080 [ ACK ] Seq=8577 Ack=1 Win=65535) Payload Fragment [1276:1460] Payload Fragment [0:352]
- 2.20787 /NodeList/0/DeviceList/0/$ns3::PointToPointNetDevice/TxQueue/Dequeue ns3::PppHeader (Point-to-Point Protocol: IP (0x0021)) ns3::Ipv4Header (tos 0x0 DSCP Default ECN Not-ECT ttl 64 id 17 protocol 6 offset (bytes) 0 flags [none] length: 576 10.1.1.1 > 10.1.1.2) ns3::TcpHeader (49153 > 8080 [ ACK ] Seq=8041 Ack=1 Win=65535) Payload Fragment [740:1276]
r 2.20879 /NodeList/0/DeviceList/0/$ns3::PointToPointNetDevice/MacRx ns3::PppHeader (Point-to-Point Protocol: IP (0x0021)) ns3::Ipv4Header (tos 0x0 DSCP Default ECN Not-ECT ttl 64 id 7 protocol 6 offset (bytes) 0 flags [none] length: 40 10.1.1.2 > 10.1.1.1) ns3::TcpHeader (8080 > 49153 [ ACK ] Seq=1 Ack=6433 Win=65535)
- 2.20879 /NodeList/0/DeviceList/0/$ns3::PointToPointNetDevice/TxQueue/Dequeue ns3::PppHeader (Point-to-Point Protocol: IP (0x0021)) ns3::Ipv4Header (tos 0x0 DSCP Default ECN Not-ECT ttl 64 id 18 protocol 6 offset (bytes) 0 flags [none] length: 576 10.1.1.1 > 10.1.1.2) ns3::TcpHeader (49153 > 8080 [ ACK ] Seq=8577 Ack=1 Win=65535) Payload Fragment [1276:1460] Payload Fragment [0:352]
+ 2.20879 /NodeList/0/DeviceList/0/$ns3::PointToPointNetDevice/TxQueue/Enqueue ns3::PppHeader (Point-to-Point Protocol: IP (0x0021)) ns3::Ipv4Header (tos 0x0 DSCP Default ECN Not-ECT ttl 64 id 19 protocol 6 offset (bytes) 0 flags [none] length: 576 10.1.1.1 > 10.1.1.2) ns3::TcpHeader (49153 > 8080 [ ACK ] Seq=9113 Ack=1 Win=65535) Payload Fragment [352:888]
+ 2.20879 /NodeList/0/DeviceList/0/$ns3::PointToPointNetDevice/TxQueue/Enqueue ns3::PppHeader (Point-to-Point Protocol: IP (0x0021)) ns3::Ipv4Header (tos 0x0 DSCP Default ECN Not-ECT ttl 64 id 20 protocol 6 offset (bytes) 0 flags [none] length: 576 10.1.1.1 > 10.1.1.2) ns3::TcpHeader (49153 > 8080 [ ACK ] Seq=9649 Ack=1 Win=65535) Payload Fragment [888:1424]
+ 2.20879 /NodeList/0/DeviceList/0/$ns3::PointToPointNetDevice/TxQueue/Enqueue ns3::PppHeader (Point-to-Point Protocol: IP (0x0021)) ns3::Ipv4Header (tos 0x0 DSCP Default ECN Not-ECT ttl 64 id 21 protocol 6 offset (bytes) 0 flags [none] length: 576 10.1.1.1 > 10.1.1.2) ns3::TcpHeader (49153 > 8080 [ ACK ] Seq=10185 Ack=1 Win=65535) Payload Fragment [1424:1460] Payload Fragment [0:500]
- 2.20972 /NodeList/0/DeviceList/0/$ns3::PointToPointNetDevice/TxQueue/Dequeue ns3::PppHeader (Point-to-Point Protocol: IP (0x0021)) ns3::Ipv4Header (tos 0x0 DSCP Default ECN Not-ECT ttl 64 id 19 protocol 6 offset (bytes) 0 flags [none] length: 576 10.1.1.1 > 10.1.1.2) ns3::TcpHeader (49153 > 8080 [ ACK ] Seq=9113 Ack=1 Win=65535) Payload Fragment [352:888]
r 2.21064 /NodeList/0/DeviceList/0/$ns3::PointToPointNetDevice/MacRx ns3::PppHeader (Point-to-Point Protocol: IP (0x0021)) ns3::Ipv4Header (tos 0x0 DSCP Default ECN Not-ECT ttl 64 id 8 protocol 6 offset (bytes) 0 flags [none] length: 40 10.1.1.2 > 10.1.1.1) ns3::TcpHeader (8080 > 49153 [ ACK ] Seq=1 Ack=7505 Win=65535)