+ 1 /NodeList/0/DeviceList/0/$ns3::PointToPointNetDevice/TxQueue/Enqueue ns3::PppHeader (Point-to-Point Protocol: IP (0x0021)) ns3::Ipv4Header (tos 0x0 DSCP Default ECN Not-ECT ttl 64 id 0 protocol 6 offset (bytes) 0 flags [none] length: 40 10.1.1.1 > 10.1.1.2) ns3::TcpHeader (49153 > 8080 [ SYN ] Seq=0 Ack=0 Win=65535)
- 1 /NodeList/0/DeviceList/0/$ns3::PointToPointNetDevice/TxQueue/Dequeue ns3::PppHeader (Point-to-Point Protocol: IP (0x0021)) ns3::Ipv4Header (tos 0x0 DSCP Default ECN Not-ECT ttl 64 id 0 protocol 6 offset (bytes) 0 flags [none] length: 40 10.1.1.1 > 10.1.1.2) ns3::TcpHeader (49153 > 8080 [ SYN ] Seq=0 Ack=0 Win=65535)
r 1.00507 /NodeList/1/DeviceList/0/$ns3::PointToPointNetDevice/MacRx ns3::PppHeader (Point-to-Point Protocol: IP (0x0021)) ns3::Ipv4Header (tos 0x0 DSCP Default ECN Not-ECT ttl 64 id 0 protocol 6 offset (bytes) 0 flags [none] length: 40 10.1.1.1 > 10.1.1.2) ns3::TcpHeader (49153 > 8080 [ SYN ] Seq=0 Ack=0 Win=65535)
+ 1.00507 /NodeList/1/DeviceList/0/$ns3::PointToPointNetDevice/TxQueue/Enqueue ns3::PppHeader (Point-to-Point Protocol: IP (0x0021)) ns3::Ipv4Header (tos 0x0 DSCP Default ECN Not-ECT ttl 64 id 0 protocol 6 offset (bytes) 0 flags [none] length: 40 10.1.1.2 > 10.1.1.1) ns3::TcpHeader (8080 > 49153 [ SYN  ACK ] Seq=0 Ack=1 Win=65535)
- 1.00507 /NodeList/1/DeviceList/0/$ns3::PointToPointNetDevice/TxQueue/Dequeue ns3::PppHeader (Point-to-Point Protocol: IP (0x0021)) ns3::Ipv4Header (tos 0x0 DSCP Default ECN Not-ECT ttl 64 id 0 protocol 6 offset (bytes) 0 flags [none] length: 40 10.1.1.2 > 10.1.1.1) ns3::TcpHeader (8080 > 49153 [ SYN  ACK ] Seq=0 Ack=1 Win=65535)
r 1.01013 /NodeList/0/DeviceList/0/$ns3::PointToPointNetDevice/MacRx ns3::PppHeader (Point-to-Point Protocol: IP (0x0021)) ns3::Ipv4Header (tos 0x0 DSCP Default ECN Not-ECT ttl 64 id 0 protocol 6 offset (bytes) 0 flags [none] length: 40 10.1.1.2 > 10.1.1.1) ns3::TcpHeader (8080 > 49153 [ SYN  ACK ] Seq=0 Ack=1 Win=65535)
+ 1.01013 /NodeList/0/DeviceList/0/$ns3::PointToPointNetDevice/TxQueue/Enqueue ns3::PppHeader (Point-to-Point Protocol: IP (0x0021)) ns3::Ipv4Header (tos 0x0 DSCP Default ECN Not-ECT ttl 64 id 1 protocol 6 offset (bytes) 0 flags [none] length: 40 10.1.1.1 > 10.1.1.2) ns3::TcpHeader (49153 > 8080 [ ACK ] Seq=1 Ack=1 Win=65535)
- 1.01013 /NodeList/0/DeviceList/0/$ns3::PointToPointNetDevice/TxQueue/Dequeue ns3::PppHeader (Point-to-Point Protocol: IP (0x0021)) ns3::Ipv4Header (tos 0x0 DSCP Default ECN Not-ECT ttl 64 id 1 protocol 6 offset (bytes) 0 flags [none] length: 40 10.1.1.1 > 10.1.1.2) ns3::TcpHeader (49153 > 8080 [ ACK ] Seq=1 Ack=1 Win=65535)
+ 1.01013 /NodeList/0/DeviceList/0/$ns3::PointToPointNetDevice/TxQueue/Enqueue ns3::PppHeader (Point-to-Point Protocol: IP (0x0021)) ns3::Ipv4Header (tos 0x0 DSCP Default ECN Not-ECT ttl 64 id 2 protocol 6 offset (bytes) 0 flags [none] length: 576 10.1.1.1 > 10.1.1.2) ns3::TcpHeader (49153 > 8080 [ ACK ] Seq=1 Ack=1 Win=65535) Payload Fragment [0:536]
- 1.0102 /NodeList/0/DeviceList/0/$ns3::PointToPointNetDevice/TxQueue/Dequeue ns3::PppHeader (Point-to-Point Protocol: IP (0x0021)) ns3::Ipv4Header (tos 0x0 DSCP Default ECN Not-ECT ttl 64 id 2 protocol 6 offset (bytes) 0 flags [none] length: 576 10.1.1.1 > 10.1.1.2) ns3::TcpHeader (49153 > 8080 [ ACK ] Seq=1 Ack=1 Win=65535) Payload Fragment [0:536]
r 1.0152 /NodeList/1/DeviceList/0/$ns3::PointToPointNetDevice/MacRx ns3::PppHeader (Point-to-Point Protocol: IP (0x0021)) ns3::Ipv4Header (tos 0x0 DSCP Default ECN Not-ECT ttl 64 id 1 protocol 6 offset (bytes) 0 flags [none] length: 40 10.1.1.1 > 10.1.1.2) ns3::TcpHeader (49153 > 8080 [ ACK ] Seq=1 Ack=1 Win=65535)
r 1.01613 /NodeList/1/DeviceList/0/$ns3::PointToPointNetDevice/MacRx ns3::PppHeader (Point-to-Point Protocol: IP (0x0021)) ns3::Ipv4Header (tos 0x0 DSCP Default ECN Not-ECT ttl 64 id 2 protocol 6 offset (bytes) 0 flags [none] length: 576 10.1.1.1 > 10.1.1.2) ns3::TcpHeader (49153 > 8080 [ ACK ] Seq=1 Ack=1 Win=65535) Payload Fragment [0:536]
+ 1.01613 /NodeList/1/DeviceList/0/$ns3::PointToPointNetDevice/TxQueue/Enqueue ns3::PppHeader (Point-to-Point Protocol: IP (0x0021)) ns3::Ipv4Header (tos 0x0 DSCP Default ECN Not-ECT ttl 64 id 1 protocol 6 offset (bytes) 0 flags [none] length: 40 10.1.1.2 > 10.1.1.1) ns3::TcpHeader (8080 > 49153 [ ACK ] Seq=1 Ack=537 Win=65535)
- 1.01613 /NodeList/1/DeviceList/0/$ns3::PointToPointNetDevice/TxQueue/Dequeue ns3::PppHeader (Point-to-Point Protocol: IP (0x0021)) ns3::Ipv4Header (tos 0x0 DSCP Default ECN Not-ECT ttl 64 id 1 protocol 6 offset (bytes) 0 flags [none] length: 40 10.1.1.2 > 10.1.1.1) ns3::TcpHeader (8080 > 49153 [ ACK ] Seq=1 Ack=537 Win=65535)
r 1.02119 /NodeList/0/DeviceList/0/$ns3::PointToPointNetDevice/MacRx ns3::PppHeader (Point-to-Point Protocol: IP (0x0021)) ns3::Ipv4Header (tos 0x0 DSCP Default ECN Not-ECT ttl 64 id 1 protocol 6 offset (bytes) 0 flags [none] length: 40 10.1.1.2 > 10.1.1.1) ns3::TcpHeader (8080 > 49153 [ ACK ] Seq=1 Ack=537 Win=65535)
+ 1.02119 /NodeList/0/DeviceList/0/$ns3::PointToPointNetDevice/TxQueue/Enqueue ns3::PppHeader (Point-to-Point Protocol: IP (0x0021)) ns3::Ipv4Header (tos 0x0 DSCP Default ECN Not-ECT ttl 64 id 3 protocol 6 offset (bytes) 0 flags [none] length: 576 10.1.1.1 > 10.1.1.2) ns3::TcpHeader (49153 > 8080 [ ACK ] Seq=537 Ack=1 Win=65535) Payload Fragment [536:1072]
- 1.02119 /NodeList/0/DeviceList/0/$ns3::PointToPointNetDevice/TxQueue/Dequeue ns3::PppHeader (Point-to-Point Protocol: IP (0x0021)) ns3::Ipv4Header (tos 0x0 DSCP Default ECN Not-ECT ttl 64 id 3 protocol 6 offset (bytes) 0 flags [none] length: 576 10.1.1.1 > 10.1.1.2) ns3::TcpHeader (49153 > 8080 [ ACK ] Seq=537 Ack=1 Win=65535) Payload Fragment [536:1072]
+ 1.02119 /NodeList/0/DeviceList/0/$ns3::PointToPointNetDevice/TxQueue/Enqueue ns3::PppHeader (Point-to-Point Protocol: IP (0x0021)) ns3::Ipv4Header (tos 0x0 DSCP Default ECN Not-ECT ttl 64 id 4 protocol 6 offset (bytes) 0 flags [none] length: 576 10.1.1.1 > 10.1.1.2) ns3::TcpHeader (49153 > 8080 [ ACK ] Seq=1073 Ack=1 Win=65535) Payload Fragment [1072:1460] Payload Fragment [0:148]
- 1.02212 /NodeList/0/DeviceList/0/$ns3::PointToPointNetDevice/TxQueue/Dequeue ns3::PppHeader (Point-to-Point Protocol: IP (0x0021)) ns3::Ipv4Header (tos 0x0 DSCP Default ECN Not-ECT ttl 64 id 4 protocol 6 offset (bytes) 0 flags [none] length: 576 10.1.1.1 > 10.1.1.2) ns3::TcpHeader (49153 > 8080 [ ACK ] Seq=1073 Ack=1 Win=65535) Payload Fragment [1072:1460] Payload Fragment [0:148]
d 1.02712 /NodeList/1/DeviceList/0/$ns3::PointToPointNetDevice/PhyRxDrop ns3::PppHeader (Point-to-Point Protocol: IP (0x0021)) ns3::Ipv4Header (tos 0x0 DSCP Default ECN Not-ECT ttl 64 id 3 protocol 6 offset (bytes) 0 flags [none] length: 576 10.1.1.1 > 10.1.1.2) ns3::TcpHeader (49153 > 8080 [ ACK ] Seq=537 Ack=1 Win=65535) Payload Fragment [536:1072]
d 1.02804 /NodeList/1/DeviceList/0/$ns3::PointToPointNetDevice/PhyRxDrop ns3::PppHeader (Point-to-Point Protocol: IP (0x0021)) ns3::Ipv4Header (tos 0x0 DSCP Default ECN Not-ECT ttl 64 id 4 protocol 6 offset (bytes) 0 flags [none] length: 576 10.1.1.1 > 10.1.1.2) ns3::TcpHeader (49153 > 8080 [ ACK ] Seq=1073 Ack=1 Win=65535) Payload Fragment [1072:1460] Payload Fragment [0:148]
+ 1.22119 /NodeList/0/DeviceList/0/$ns3::PointToPointNetDevice/TxQueue/Enqueue ns3::PppHeader (Point-to-Point Protocol: IP (0x0021)) ns3::Ipv4Header (tos 0x0 DSCP Default ECN Not-ECT ttl 64 id 5 protocol 6 offset (bytes) 0 flags [none] length: 576 10.1.1.1 > 10.1.1.2) ns3::TcpHeader (49153 > 8080 [ ACK ] Seq=537 Ack=1 Win=65535) Payload Fragment [536:1072]
- 1.22119 /NodeList/0/DeviceList/0/$ns3::PointToPointNetDevice/TxQueue/Dequeue ns3::PppHeader (Point-to-Point Protocol: IP (0x0021)) ns3::Ipv4Header (tos 0x0 DSCP Default ECN Not-ECT ttl 64 id 5 protocol 6 offset (bytes) 0 flags [none] length: 576 10.1.1.1 > 10.1.1.2) ns3::TcpHeader (49153 > 8080 [ ACK ] Seq=537 Ack=1 Win=65535) Payload Fragment [536:1072]
r 1.22712 /NodeList/1/DeviceList/0/$ns3::PointToPointNetDevice/MacRx ns3::PppHeader (Point-to-Point Protocol: IP (0x0021)) ns3::Ipv4Header (tos 0x0 DSCP Default ECN Not-ECT ttl 64 id 5 protocol 6 offset (bytes) 0 flags [none] length: 576 10.1.1.1 > 10.1.1.2) ns3::TcpHeader (49153 > 8080 [ ACK ] Seq=537 Ack=1 Win=65535) Payload Fragment [536:1072]
+ 1.42712 /NodeList/1/DeviceList/0/$ns3::PointToPointNetDevice/TxQueue/Enqueue ns3::PppHeader (Point-to-Point Protocol: IP (0x0021)) ns3::Ipv4Header (tos 0x0 DSCP Default ECN Not-ECT ttl 64 id 2 protocol 6 offset (bytes) 0 flags [none] length: 40 10.1.1.2 > 10.1.1.1) ns3::TcpHeader (8080 > 49153 [ ACK ] Seq=1 Ack=1073 Win=65535)
- 1.42712 /NodeList/1/DeviceList/0/$ns3::PointToPointNetDevice/TxQueue/Dequeue ns3::PppHeader (Point-to-Point Protocol: IP (0x0021)) ns3::Ipv4Header (tos 0x0 DSCP Default ECN Not-ECT ttl 64 id 2 protocol 6 offset (bytes) 0 flags [none] length: 40 10.1.1.2 > 10.1.1.1) ns3::TcpHeader (8080 > 49153 [ ACK ] Seq=1 Ack=1073 Win=65535)
r 1.43219 /NodeList/0/DeviceList/0/$ns3::PointToPointNetDevice/MacRx ns3::PppHeader (Point-to-Point Protocol: IP (0x0021)) ns3::Ipv4Header (tos 0x0 DSCP Default ECN Not-ECT ttl 64 id 2 protocol 6 offset (bytes) 0 flags [none] length: 40 10.1.1.2 > 10.1.1.1) ns3::TcpHeader (8080 > 49153 [ ACK ] Seq=1 Ack=1073 Win=65535)
+ 1.43219 /NodeList/0/DeviceList/0/$ns3::PointToPointNetDevice/TxQueue/Enqueue ns3::PppHeader (Point-to-Point Protocol: IP (0x0021)) ns3::Ipv4Header (tos 0x0 DSCP Default ECN Not-ECT ttl 64 id 6 protocol 6 offset (bytes) 0 flags [none] length: 576 10.1.1.1 > 10.1.1.2) ns3::TcpHeader (49153 > 8080 [ ACK ] Seq=1073 Ack=1 Win=65535) Payload Fragment [1072:1460] Payload Fragment [0:148]
- 1.43219 /NodeList/0/DeviceList/0/$ns3::PointToPointNetDevice/TxQueue/Dequeue ns3::PppHeader (Point-to-Point Protocol: IP (0x0021)) ns3::Ipv4Header (tos 0x0 DSCP Default ECN Not-ECT ttl 64 id 6 protocol 6 offset (bytes) 0 flags [none] length: 576 10.1.1.1 > 10.1.1.2) ns3::TcpHeader (49153 > 8080 [ ACK ] Seq=1073 Ack=1 Win=65535) Payload Fragment [1072:1460] Payload Fragment [0:148]
+ 1.43219 /NodeList/0/DeviceList/0/$ns3::PointToPointNetDevice/TxQueue/Enqueue ns3::PppHeader (Point-to-Point Protocol: IP (0x0021)) ns3::Ipv4Header (tos 0x0 DSCP Default ECN Not-ECT ttl 64 id 7 protocol 6 offset (bytes) 0 flags [none] length: 576 10.1.1.1 > 10.1.1.2) ns3::TcpHeader (49153 > 8080 [ ACK ] Seq=1609 Ack=1 Win=65535) Payload Fragment [148:684]
- 1.43311 /NodeList/0/DeviceList/0/$ns3::PointToPointNetDevice/TxQueue/Dequeue ns3::PppHeader (Point-to-Point Protocol: IP (0x0021)) ns3::Ipv4Header (tos 0x0 DSCP Default ECN Not-ECT ttl 64 id 7 protocol 6 offset (bytes) 0 flags [none] length: 576 10.1.1.1 > 10.1.1.2) ns3::TcpHeader (49153 > 8080 [ ACK ] Seq=1609 Ack=1 Win=65535) Payload Fragment [148:684]
d 1.43811 /NodeList/1/DeviceList/0/$ns3::PointToPointNetDevice/PhyRxDrop ns3::PppHeader (Point-to-Point Protocol: IP (0x0021)) ns3::Ipv4Header (tos 0x0 DSCP Default ECN Not-ECT ttl 64 id 6 protocol 6 offset (bytes) 0 flags [none] length: 576 10.1.1.1 > 10.1.1.2) ns3::TcpHeader (49153 > 8080 [ ACK ] Seq=1073 Ack=1 Win=65535) Payload Fragment [1072:1460] Payload Fragment [0:148]
r 1.43904 /NodeList/1/DeviceList/0/$ns3::PointToPointNetDevice/MacRx ns3::PppHeader (Point-to-Point Protocol: IP (0x0021)) ns3::Ipv4Header (tos 0x0 DSCP Default ECN Not-ECT ttl 64 id 7 protocol 6 offset (bytes) 0 flags [none] length: 576 10.1.1.1 > 10.1.1.2) ns3::TcpHeader (49153 > 8080 [ ACK ] Seq=1609 Ack=1 Win=65535) Payload Fragment [148:684]
+ 1.43904 /NodeList/1/DeviceList/0/$ns3::PointToPointNetDevice/TxQueue/Enqueue ns3::PppHeader (Point-to-Point Protocol: IP (0x0021)) ns3::Ipv4Header (tos 0x0 DSCP Default ECN Not-ECT ttl 64 id 3 protocol 6 offset (bytes) 0 flags [none] length: 40 10.1.1.2 > 10.1.1.1) ns3::TcpHeader (8080 > 49153 [ ACK ] Seq=1 Ack=1073 Win=65535)
- 1.43904 /NodeList/1/DeviceList/0/$ns3::PointToPointNetDevice/TxQueue/Dequeue ns3::PppHeader (Point-to-Point Protocol: IP (0x0021)) ns3::Ipv4Header (tos 0x0 DSCP Default ECN Not-ECT ttl 64 id 3 protocol 6 offset (bytes) 0 flags [none] length: 40 10.1.1.2 > 10.1.1.1) ns3::TcpHeader (8080 > 49153 [ ACK ] Seq=1 Ack=1073 Win=65535)
r 1.4441 /NodeList/0/DeviceList/0/$ns3::PointToPointNetDevice/MacRx ns3::PppHeader (Point-to-Point Protocol: IP (0x0021)) ns3::Ipv4Header (tos 0x0 DSCP Default ECN Not-ECT ttl 64 id 3 protocol 6 offset (bytes) 0 flags [none] length: 40 10.1.1.2 > 10.1.1.1) ns3::TcpHeader (8080 > 49153 [ ACK ] Seq=1 Ack=1073 Win=65535)
+ 1.83219 /NodeList/0/DeviceList/0/$ns3::PointToPointNetDevice/TxQueue/Enqueue ns3::PppHeader (Point-to-Point Protocol: IP (0x0021)) ns3::Ipv4Header (tos 0x0 DSCP Default ECN Not-ECT ttl 64 id 8 protocol 6 offset (bytes) 0 flags [none] length: 576 10.1.1.1 > 10.1.1.2) ns3::TcpHeader (49153 > 8080 [ ACK ] Seq=1073 Ack=1 Win=65535) Payload Fragment [1072:1460] Payload Fragment [0:148]
- 1.83219 /NodeList/0/DeviceList/0/$ns3::PointToPointNetDevice/TxQueue/Dequeue ns3::PppHeader (Point-to-Point Protocol: IP (0x0021)) ns3::Ipv4Header (tos 0x0 DSCP Default ECN Not-ECT ttl 64 id 8 protocol 6 offset (bytes) 0 flags [none] length: 576 10.1.1.1 > 10.1.1.2) ns3::TcpHeader (49153 > 8080 [ ACK ] Seq=1073 Ack=1 Win=65535) Payload Fragment [1072:1460] Payload Fragment [0:148]
r 1.83811 /NodeList/1/DeviceList/0/$ns3::PointToPointNetDevice/MacRx ns3::PppHeader (Point-to-Point Protocol: IP (0x0021)) ns3::Ipv4Header (tos 0x0 DSCP Default ECN Not-ECT ttl 64 id 8 protocol 6 offset (bytes) 0 flags [none] length: 576 10.1.1.1 > 10.1.1.2) ns3::TcpHeader (49153 > 8080 [ ACK ] Seq=1073 Ack=1 Win=65535) Payload Fragment [1072:1460] Payload Fragment [0:148]
+ 1.83811 /NodeList/1/DeviceList/0/$ns3::PointToPointNetDevice/TxQueue/Enqueue ns3::PppHeader (Point-to-Point Protocol: IP (0x0021)) ns3::Ipv4Header (tos 0x0 DSCP Default ECN Not-ECT ttl 64 id 4 protocol 6 offset (bytes) 0 flags [none] length: 40 10.1.1.2 > 10.1.1.1) ns3::TcpHeader (8080 > 49153 [ ACK ] Seq=1 Ack=2145 Win=65535)
- 1.83811 /NodeList/1/DeviceList/0/$ns3::PointToPointNetDevice/TxQueue/Dequeue ns3::PppHeader (Point-to-Point Protocol: IP (0x0021)) ns3::Ipv4Header (tos 0x0 DSCP Default ECN Not-ECT ttl 64 id 4 protocol 6 offset (bytes) 0 flags [none] length: 40 10.1.1.2 > 10.1.1.1) ns3::TcpHeader (8080 > 49153 [ ACK ] Seq=1 Ack=2145 Win=65535)
r 1.84318 /NodeList/0/DeviceList/0/$ns3::PointToPointNetDevice/MacRx ns3::PppHeader (Point-to-Point Protocol: IP (0x0021)) ns3::Ipv4Header (tos 0x0 DSCP Default ECN Not-ECT ttl 64 id 4 protocol 6 offset (bytes) 0 flags [none] length: 40 10.1.1.2 > 10.1.1.1) ns3::TcpHeader (8080 > 49153 [ ACK ] Seq=1 Ack=2145 Win=65535)
+ 1.84318 /NodeList/0/DeviceList/0/$ns3::PointToPointNetDevice/TxQueue/Enqueue ns3::PppHeader (Point-to-Point Protocol: IP (0x0021)) ns3::Ipv4Header (tos 0x0 DSCP Default ECN Not-ECT ttl 64 id 9 protocol 6 offset (bytes) 0 flags [none] length: 576 10.1.1.1 > 10.1.1.2) ns3::TcpHeader (49153 > 8080 [ ACK ] Seq=2145 Ack=1 Win=65535) Payload Fragment [684:1220]
- 1.84318 /NodeList/0/DeviceList/0/$ns3::PointToPointNetDevice/TxQueue/Dequeue ns3::PppHeader (Point-to-Point Protocol: IP (0x0021)) ns3::Ipv4Header (tos 0x0 DSCP Default ECN Not-ECT ttl 64 id 9 protocol 6 offset (bytes) 0 flags [none] length: 576 10.1.1.1 > 10.1.1.2) ns3::TcpHeader (49153 > 8080 [ ACK ] Seq=2145 Ack=1 Win=65535) Payload Fragment [684:1220]
+ 1.84318 /NodeList/0/DeviceList/0/$ns3::PointToPointNetDevice/TxQueue/Enqueue ns3::PppHeader (Point-to-Point Protocol: IP (0x0021)) ns3::Ipv4Header (tos 0x0 DSCP Default ECN Not-ECT ttl 64 id 10 protocol 6 offset (bytes) 0 flags [none] length: 576 10.1.1.1 > 10.1.1.2) ns3::TcpHeader (49153 > 8080 [ ACK ] Seq=2681 Ack=1 Win=65535) Payload Fragment [1220:1460] Payload Fragment [0:296]
- 1.8441 /NodeList/0/DeviceList/0/$ns3::PointToPointNetDevice/TxQueue/Dequeue ns3::PppHeader (Point-to-Point Protocol: IP (0x0021)) ns3::Ipv4Header (tos 0x0 DSCP Default ECN Not-ECT ttl 64 id 10 protocol 6 offset (bytes) 0 flags [none] length: 576 10.1.1.1 > 10.1.1.2) ns3::TcpHeader (49153 > 8080 [ ACK ] Seq=2681 Ack=1 Win=65535) Payload Fragment [1220:1460] Payload Fragment [0:296]
r 1.8491 /NodeList/1/DeviceList/0/$ns3::PointToPointNetDevice/MacRx ns3::PppHeader (Point-to-Point Protocol: IP (0x0021)) ns3::Ipv4Header (tos 0x0 DSCP Default ECN Not-ECT ttl 64 id 9 protocol 6 offset (bytes) 0 flags [none] length: 576 10.1.1.1 > 10.1.1.2) ns3::TcpHeader (49153 > 8080 [ ACK ] Seq=2145 Ack=1 Win=65535) Payload Fragment [684:1220]
r 1.85003 /NodeList/1/DeviceList/0/$ns3::PointToPointNetDevice/MacRx ns3::PppHeader (Point-to-Point Protocol: IP (0x0021)) ns3::Ipv4Header (tos 0x0 DSCP Default ECN Not-ECT ttl 64 id 10 protocol 6 offset (bytes) 0 flags [none] length: 576 10.1.1.1 > 10.1.1.2) ns3::TcpHeader (49153 > 8080 [ ACK ] Seq=2681 Ack=1 Win=65535) Payload Fragment [1220:1460] Payload Fragment [0:296]
+ 1.85003 /NodeList/1/DeviceList/0/$ns3::PointToPointNetDevice/TxQueue/Enqueue ns3::PppHeader (Point-to-Point Protocol: IP (0x0021)) ns3::Ipv4Header (tos 0x0 DSCP Default ECN Not-ECT ttl 64 id 5 protocol 6 offset (bytes) 0 flags [none] length: 40 10.1.1.2 > 10.1.1.1) ns3::TcpHeader (8080 > 49153 [ ACK ] Seq=1 Ack=3217 Win=65535)
- 1.85003 /NodeList/1/DeviceList/0/$ns3::PointToPointNetDevice/TxQueue/Dequeue ns3::PppHeader (Point-to-Point Protocol: IP (0x0021)) ns3::Ipv4Header (tos 0x0 DSCP Default ECN Not-ECT ttl 64 id 5 protocol 6 offset (bytes) 0 flags [none] length: 40 10.1.1.2 > 10.1.1.1) ns3::TcpHeader (8080 > 49153 [ ACK ] Seq=1 Ack=3217 Win=65535)
r 1.85509 /NodeList/0/DeviceList/0/$ns3::PointToPointNetDevice/MacRx ns3::PppHeader (Point-to-Point Protocol: IP (0x0021)) ns3::Ipv4Header (tos 0x0 DSCP Default ECN Not-ECT ttl 64 id 5 protocol 6 offset (bytes) 0 flags [none] length: 40 10.1.1.2 > 10.1.1.1) ns3::TcpHeader (8080 > 49153 [ ACK ] Seq=1 Ack=3217 Win=65535)
+ 1.85509 /NodeList/0/DeviceList/0/$ns3::PointToPointNetDevice/TxQueue/Enqueue ns3::PppHeader (Point-to-Point Protocol: IP (0x0021)) ns3::Ipv4Header (tos 0x0 DSCP Default ECN Not-ECT ttl 64 id 11 protocol 6 offset (bytes) 0 flags [none] length: 576 10.1.1.1 > 10.1.1.2) ns3::TcpHeader (49153 > 8080 [ ACK ] Seq=3217 Ack=1 Win=65535) Payload Fragment [296:832]
- 1.85509 /NodeList/0/DeviceList/0/$ns3::PointToPointNetDevice/TxQueue/Dequeue ns3::PppHeader (Point-to-Point Protocol: IP (0x0021)) ns3::Ipv4Header (tos 0x0 DSCP Default ECN Not-ECT ttl 64 id 11 protocol 6 offset (bytes) 0 flags [none] length: 576 10.1.1.1 > 10.1.1.2) ns3::TcpHeader (49153 > 8080 [ ACK ] Seq=3217 Ack=1 Win=65535) Payload Fragment [296:832]
+ 1.85509 /NodeList/0/DeviceList/0/$ns3::PointToPointNetDevice/TxQueue/Enqueue ns3::PppHeader (Point-to-Point Protocol: IP (0x0021)) ns3::Ipv4Header (tos 0x0 DSCP Default ECN Not-ECT ttl 64 id 12 protocol 6 offset (bytes) 0 flags [none] length: 576 10.1.1.1 > 10.1.1.2) ns3::TcpHeader (49153 > 8080 [ ACK ] Seq=3753 Ack=1 Win=65535) Payload Fragment [832:1368]
- 1.85602 /NodeList/0/DeviceList/0/$ns3::PointToPointNetDevice/TxQueue/Dequeue ns3::PppHeader (Point-to-Point Protocol: IP (0x0021)) ns3::Ipv4Header (tos 0x0 DSCP Default ECN Not-ECT ttl 64 id 12 protocol 6 offset (bytes) 0 flags [none] length: 576 10.1.1.1 > 10.1.1.2) ns3::TcpHeader (49153 > 8080 [ ACK ] Seq=3753 Ack=1 Win=65535) Payload Fragment [832:1368]
r 1.86102 /NodeList/1/DeviceList/0/$ns3::PointToPointNetDevice/MacRx ns3::PppHeader (Point-to-Point Protocol: IP (0x0021)) ns3::Ipv4Header (tos 0x0 DSCP Default ECN Not-ECT ttl 64 id 11 protocol 6 offset (bytes) 0 flags [none] length: 576 10.1.1.1 > 10.1.1.2) ns3::TcpHeader (49153 > 8080 [ ACK ] Seq=3217 Ack=1 Win=65535) Payload Fragment [296:832]
d 1.86194 /NodeList/1/DeviceList/0/$ns3::PointToPointNetDevice/PhyRxDrop ns3::PppHeader (Point-to-Point Protocol: IP (0x0021)) ns3::Ipv4Header (tos 0x0 DSCP Default ECN Not-ECT ttl 64 id 12 protocol 6 offset (bytes) 0 flags [none] length: 576 10.1.1.1 > 10.1.1.2) ns3::TcpHeader (49153 > 8080 [ ACK ] Seq=3753 Ack=1 Win=65535) Payload Fragment [832:1368]
+ 2.05509 /NodeList/0/DeviceList/0/$ns3::PointToPointNetDevice/TxQueue/Enqueue ns3::PppHeader (Point-to-Point Protocol: IP (0x0021)) ns3::Ipv4Header (tos 0x0 DSCP Default ECN Not-ECT ttl 64 id 13 protocol 6 offset (bytes) 0 flags [none] length: 576 10.1.1.1 > 10.1.1.2) ns3::TcpHeader (49153 > 8080 [ ACK ] Seq=3217 Ack=1 Win=65535) Payload Fragment [296:832]
- 2.05509 /NodeList/0/DeviceList/0/$ns3::PointToPointNetDevice/TxQueue/Dequeue ns3::PppHeader (Point-to-Point Protocol: IP (0x0021)) ns3::Ipv4Header (tos 0x0 DSCP Default ECN Not-ECT ttl 64 id 13 protocol 6 offset (bytes) 0 flags [none] length: 576 10.1.1.1 > 10.1.1.2) ns3::TcpHeader (49153 > 8080 [ ACK ] Seq=3217 Ack=1 Win=65535) Payload Fragment [296:832]
+ 2.06102 /NodeList/1/DeviceList/0/$ns3::PointToPointNetDevice/TxQueue/Enqueue ns3::PppHeader (Point-to-Point Protocol: IP (0x0021)) ns3::Ipv4Header (tos 0x0 DSCP Default ECN Not-ECT ttl 64 id 6 protocol 6 offset (bytes) 0 flags [none] length: 40 10.1.1.2 > 10.1.1.1) ns3::TcpHeader (8080 > 49153 [ ACK ] Seq=1 Ack=3753 Win=65535)
- 2.06102 /NodeList/1/DeviceList/0/$ns3::PointToPointNetDevice/TxQueue/Dequeue ns3::PppHeader (Point-to-Point Protocol: IP (0x0021)) ns3::Ipv4Header (tos 0x0 DSCP Default ECN Not-ECT ttl 64 id 6 protocol 6 offset (bytes) 0 flags [none] length: 40 10.1.1.2 > 10.1.1.1) ns3::TcpHeader (8080 > 49153 [ ACK ] Seq=1 Ack=3753 Win=65535)
r 2.06102 /NodeList/1/DeviceList/0/$ns3::PointToPointNetDevice/MacRx ns3::PppHeader (Point-to-Point Protocol: IP (0x0021)) ns3::Ipv4Header (tos 0x0 DSCP Default ECN Not-ECT ttl 64 id 13 protocol 6 offset (bytes) 0 flags [none] length: 576 10.1.1.1 > 10.1.1.2) ns3::TcpHeader (49153 > 8080 [ ACK ] Seq=3217 Ack=1 Win=65535) Payload Fragment [296:832]
+ 2.06102 /NodeList/1/DeviceList/0/$ns3::PointToPointNetDevice/TxQueue/Enqueue ns3::PppHeader (Point-to-Point Protocol: IP (0x0021)) ns3::Ipv4Header (tos 0x0 DSCP Default ECN Not-ECT ttl 64 id 7 protocol 6 offset (bytes) 0 flags [none] length: 40 10.1.1.2 > 10.1.1.1) ns3::TcpHeader (8080 > 49153 [ ACK ] Seq=1 Ack=3753 Win=65535)
- 2.06109 /NodeList/1/DeviceList/0/$ns3::PointToPointNetDevice/TxQueue/Dequeue ns3::PppHeader (Point-to-Point Protocol: IP (0x0021)) ns3::Ipv4Header (tos 0x0 DSCP Default ECN Not-ECT ttl 64 id 7 protocol 6 offset (bytes) 0 flags [none] length: 40 10.1.1.2 > 10.1.1.1) ns3::TcpHeader (8080 > 49153 [ ACK ] Seq=1 Ack=3753 Win=65535)
r 2.06609 /NodeList/0/DeviceList/0/$ns3::PointToPointNetDevice/MacRx ns3::PppHeader (Point-to-Point Protocol: IP (0x0021)) ns3::Ipv4Header (tos 0x0 DSCP Default ECN Not-ECT ttl 64 id 6 protocol 6 offset (bytes) 0 flags [none] length: 40 10.1.1.2 > 10.1.1.1) ns3::TcpHeader (8080 > 49153 [ ACK ] Seq=1 Ack=3753 Win=65535)
+ 2.06609 /NodeList/0/DeviceList/0/$ns3::PointToPointNetDevice/TxQueue/Enqueue ns3::PppHeader (Point-to-Point Protocol: IP (0x0021)) ns3::Ipv4Header (tos 0x0 DSCP Default ECN Not-ECT ttl 64 id 14 protocol 6 offset (bytes) 0 flags [none] length: 576 10.1.1.1 > 10.1.1.2) ns3::TcpHeader (49153 > 8080 [ ACK ] Seq=3753 Ack=1 Win=65535) Payload Fragment [832:1368]
- 2.06609 /NodeList/0/DeviceList/0/$ns3::PointToPointNetDevice/TxQueue/Dequeue ns3::PppHeader (Point-to-Point Protocol: IP (0x0021)) ns3::Ipv4Header (tos 0x0 DSCP Default ECN Not-ECT ttl 64 id 14 protocol 6 offset (bytes) 0 flags [none] length: 576 10.1.1.1 > 10.1.1.2) ns3::TcpHeader (49153 > 8080 [ ACK ] Seq=3753 Ack=1 Win=65535) Payload Fragment [832:1368]
+ 2.06609 /NodeList/0/DeviceList/0/$ns3::PointToPointNetDevice/TxQueue/Enqueue ns3::PppHeader (Point-to-Point Protocol: IP (0x0021)) ns3::Ipv4Header (tos 0x0 DSCP Default ECN Not-ECT ttl 64 id 15 protocol 6 offset (bytes) 0 flags [none] length: 576 10.1.1.1 > 10.1.1.2) ns3::TcpHeader (49153 > 8080 [ ACK ] Seq=4289 Ack=1 Win=65535) Payload Fragment [1368:1460] Payload Fragment [0:444]
r 2.06615 /NodeList/0/DeviceList/0/$ns3::PointToPointNetDevice/MacRx ns3::PppHeader (Point-to-Point Protocol: IP (0x0021)) ns3::Ipv4Header (tos 0x0 DSCP Default ECN Not-ECT ttl 64 id 7 protocol 6 offset (bytes) 0 flags [none] length: 40 10.1.1.2 > 10.1.1.1) ns3::TcpHeader (8080 > 49153 [ ACK ] Seq=1 Ack=3753 Win=65535)
- 2.06701 /NodeList/0/DeviceList/0/$ns3::PointToPointNetDevice/TxQueue/Dequeue ns3::PppHeader (Point-to-Point Protocol: IP (0x0021)) ns3::Ipv4Header (tos 0x0 DSCP Default ECN Not-ECT ttl 64 id 15 protocol 6 offset (bytes) 0 flags [none] length: 576 10.1.1.1 > 10.1.1.2) ns3::TcpHeader (49153 > 8080 [ ACK ] Seq=4289 Ack=1 Win=65535) Payload Fragment [1368:1460] Payload Fragment [0:444]
d 2.07201 /NodeList/1/DeviceList/0/$ns3::PointToPointNetDevice/PhyRxDrop ns3::PppHeader (Point-to-Point Protocol: IP (0x0021)) ns3::Ipv4Header (tos 0x0 DSCP Default ECN Not-ECT ttl 64 id 14 protocol 6 offset (bytes) 0 flags [none] length: 576 10.1.1.1 > 10.1.1.2) ns3::TcpHeader (49153 > 8080 [ ACK ] Seq=3753 Ack=1 Win=65535) Payload Fragment [832:1368]
r 2.07294 /NodeList/1/DeviceList/0/$ns3::PointToPointNetDevice/MacRx ns3::PppHeader (Point-to-Point Protocol: IP (0x0021)) ns3::Ipv4Header (tos 0x0 DSCP Default ECN Not-ECT ttl 64 id 15 protocol 6 offset (bytes) 0 flags [none] length: 576 10.1.1.1 > 10.1.1.2) ns3::TcpHeader (49153 > 8080 [ ACK ] Seq=4289 Ack=1 Win=65535) Payload Fragment [1368:1460] Payload Fragment [0:444]
+ 2.07294 /NodeList/1/DeviceList/0/$ns3::PointToPointNetDevice/TxQueue/Enqueue ns3::PppHeader (Point-to-Point Protocol: IP (0x0021)) ns3::Ipv4Header (tos 0x0 DSCP Default ECN Not-ECT ttl 64 id 8 protocol 6 offset (bytes) 0 flags [none] length: 40 10.1.1.2 > 10.1.1.1) ns3::TcpHeader (8080 > 49153 [ ACK ] Seq=1 Ack=3753 Win=65535)
- 2.07294 /NodeList/1/DeviceList/0/$ns3::PointToPointNetDevice/TxQueue/Dequeue ns3::PppHeader (Point-to-Point Protocol: IP (0x0021)) ns3::Ipv4Header (tos 0x0 DSCP Default ECN Not-ECT ttl 64 id 8 protocol 6 offset (bytes) 0 flags [none] length: 40 10.1.1.2 > 10.1.1.1) ns3::TcpHeader (8080 > 49153 [ ACK ] Seq=1 Ack=3753 Win=65535)
r 2.078 /NodeList/0/DeviceList/0/$ns3::PointToPointNetDevice/MacRx ns3::PppHeader (Point-to-Point Protocol: IP (0x0021)) ns3::Ipv4Header (tos 0x0 DSCP Default ECN Not-ECT ttl 64 id 8 protocol 6 offset (bytes) 0 flags [none] length: 40 10.1.1.2 > 10.1.1.1) ns3::TcpHeader (8080 > 49153 [ ACK ] Seq=1 Ack=3753 Win=65535)
+ 2.46609 /NodeList/0/DeviceList/0/$ns3::PointToPointNetDevice/TxQueue/Enqueue ns3::PppHeader (Point-to-Point Protocol: IP (0x0021)) ns3::Ipv4Header (tos 0x0 DSCP Default ECN Not-ECT ttl 64 id 16 protocol 6 offset (bytes) 0 flags [none] length: 576 10.1.1.1 > 10.1.1.2) ns3::TcpHeader (49153 > 8080 [ ACK ] Seq=3753 Ack=1 Win=65535) Payload Fragment [832:1368]
- 2.46609 /NodeList/0/DeviceList/0/$ns3::PointToPointNetDevice/TxQueue/Dequeue ns3::PppHeader (Point-to-Point Protocol: IP (0x0021)) ns3::Ipv4Header (tos 0x0 DSCP Default ECN Not-ECT ttl 64 id 16 protocol 6 offset (bytes) 0 flags [none] length: 576 10.1.1.1 > 10.1.1.2) ns3::TcpHeader (49153 > 8080 [ ACK ] Seq=3753 Ack=1 Win=65535) Payload Fragment [832:1368]
r 2.47201 /NodeList/1/DeviceList/0/$ns3::PointToPointNetDevice/MacRx ns3::PppHeader (Point-to-Point Protocol: IP (0x0021)) ns3::Ipv4Header (tos 0x0 DSCP Default ECN Not-ECT ttl 64 id 16 protocol 6 offset (bytes) 0 flags [none] length: 576 10.1.1.1 > 10.1.1.2) ns3::TcpHeader (49153 > 8080 [ ACK ] Seq=3753 Ack=1 Win=65535) Payload Fragment [832:1368]
+ 2.47201 /NodeList/1/DeviceList/0/$ns3::PointToPointNetDevice/TxQueue/Enqueue ns3::PppHeader (Point-to-Point Protocol: IP (0x0021)) ns3::Ipv4Header (tos 0x0 DSCP Default ECN Not-ECT ttl 64 id 9 protocol 6 offset (bytes) 0 flags [none] length: 40 10.1.1.2 > 10.1.1.1) ns3::TcpHeader (8080 > 49153 [ ACK ] Seq=1 Ack=4825 Win=65535)
- 2.47201 /NodeList/1/DeviceList/0/$ns3::PointToPointNetDevice/TxQueue/Dequeue ns3::PppHeader (Point-to-Point Protocol: IP (0x0021)) ns3::Ipv4Header (tos 0x0 DSCP Default ECN Not-ECT ttl 64 id 9 protocol 6 offset (bytes) 0 flags [none] length: 40 10.1.1.2 > 10.1.1.1) ns3::TcpHeader (8080 > 49153 [ ACK ] Seq=1 Ack=4825 Win=65535)
r 2.47708 /NodeList/0/DeviceList/0/$ns3::PointToPointNetDevice/MacRx ns3::PppHeader (Point-to-Point Protocol: IP (0x0021)) ns3::Ipv4Header (tos 0x0 DSCP Default ECN Not-ECT ttl 64 id 9 protocol 6 offset (bytes) 0 flags [none] length: 40 10.1.1.2 > 10.1.1.1) ns3::TcpHeader (8080 > 49153 [ ACK ] Seq=1 Ack=4825 Win=65535)
+ 2.47708 /NodeList/0/DeviceList/0/$ns3::PointToPointNetDevice/TxQueue/Enqueue ns3::PppHeader (Point-to-Point Protocol: IP (0x0021)) ns3::Ipv4Header (tos 0x0 DSCP Default ECN Not-ECT ttl 64 id 17 protocol 6 offset (bytes) 0 flags [none] length: 576 10.1.1.1 > 10.1.1.2) ns3::TcpHeader (49153 > 8080 [ ACK ] Seq=4825 Ack=1 Win=65535) Payload Fragment [444:980]
- 2.47708 /NodeList/0/DeviceList/0/$ns3::PointToPointNetDevice/TxQueue/Dequeue ns3::PppHeader (Point-to-Point Protocol: IP (0x0021)) ns3::Ipv4Header (tos 0x0 DSCP Default ECN Not-ECT ttl 64 id 17 protocol 6 offset (bytes) 0 flags [none] length: 576 10.1.1.1 > 10.1.1.2) ns3::TcpHeader (49153 > 8080 [ ACK ] Seq=4825 Ack=1 Win=65535) Payload Fragment [444:980]
+ 2.47708 /NodeList/0/DeviceList/0/$ns3::PointToPointNetDevice/TxQueue/Enqueue ns3::PppHeader (Point-to-Point Protocol: IP (0x0021)) ns3::Ipv4Header (tos 0x0 DSCP Default ECN Not-ECT ttl 64 id 18 protocol 6 offset (bytes) 0 flags [none] length: 576 10.1.1.1 > 10.1.1.2) ns3::TcpHeader (49153 > 8080 [ ACK ] Seq=5361 Ack=1 Win=65535) Payload Fragment [980:1460] Payload Fragment [0:56]
- 2.478 /NodeList/0/DeviceList/0/$ns3::PointToPointNetDevice/TxQueue/Dequeue ns3::PppHeader (Point-to-Point Protocol: IP (0x0021)) ns3::Ipv4Header (tos 0x0 DSCP Default ECN Not-ECT ttl 64 id 18 protocol 6 offset (bytes) 0 flags [none] length: 576 10.1.1.1 > 10.1.1.2) ns3::TcpHeader (49153 > 8080 [ ACK ] Seq=5361 Ack=1 Win=65535) Payload Fragment [980:1460] Payload Fragment [0:56]